    2    2  100    1
  0.3401222E+02  0.4582052E-09  0.4582052E-09  0.4582052E-09  0.5000000E-15
  1.000000000000000E-004
  CAR 
 CdTe bulk relax                         
     18     10     13
 
  0.1250000E+00  0.1250000E+00  0.1250000E+00  0.3125000E-01
    1       -8.898743
    2       -6.132925
    3       -6.132925
    4       -6.098423
    5       -5.909143
    6       -5.909143
    7        0.817532
    8        1.890401
    9        1.890401
   10        3.564448
   11        6.610532
   12        6.843064
   13        6.843064
 
  0.3750000E+00  0.1250000E+00  0.1250000E+00  0.9375000E-01
    1       -8.691805
    2       -6.098198
    3       -6.087755
    4       -5.915130
    5       -5.914744
    6       -5.834240
    7       -1.072600
    8        0.823412
    9        1.574128
   10        4.510865
   11        7.046182
   12        7.285879
   13        7.622918
 
 -0.3750000E+00  0.1250000E+00  0.1250000E+00  0.9375000E-01
    1       -8.573751
    2       -6.078134
    3       -6.072459
    4       -5.912801
    5       -5.898984
    6       -5.572711
    7       -2.083558
    8        0.737424
    9        1.115183
   10        4.450062
   11        6.851073
   12        7.636121
   13        8.895513
 
 -0.1250000E+00  0.1250000E+00  0.1250000E+00  0.9375000E-01
    1       -8.777283
    2       -6.106061
    3       -6.098666
    4       -5.996635
    5       -5.909103
    6       -5.900933
    7       -0.291801
    8        1.361629
    9        1.386556
   10        4.492764
   11        6.051051
   12        7.584879
   13        7.655449
 
  0.3750000E+00  0.3750000E+00  0.1250000E+00  0.9375000E-01
    1       -8.609210
    2       -6.057627
    3       -6.049438
    4       -5.965029
    5       -5.890841
    6       -5.732517
    7       -1.310309
    8        0.576723
    9        0.763179
   10        4.966933
   11        5.606928
   12        8.176331
   13        8.856171
 
 -0.3750000E+00  0.3750000E+00  0.1250000E+00  0.1875000E+00
    1       -8.496215
    2       -6.041078
    3       -6.028325
    4       -5.942262
    5       -5.900383
    6       -5.435023
    7       -1.975747
    8       -0.236047
    9        0.387304
   10        5.476961
   11        6.513152
   12        7.904432
   13        9.293233
 
 -0.1250000E+00  0.3750000E+00  0.1250000E+00  0.1875000E+00
    1       -8.575034
    2       -6.067177
    3       -6.058125
    4       -5.931386
    5       -5.899699
    6       -5.618740
    7       -1.697420
    8        0.195571
    9        0.975686
   10        5.176916
   11        6.594820
   12        7.473353
   13        8.685584
 
 -0.3750000E+00 -0.3750000E+00  0.1250000E+00  0.9375000E-01
    1       -8.495534
    2       -6.022977
    3       -6.009488
    4       -5.975221
    5       -5.886429
    6       -5.483421
    7       -1.984948
    8        0.072951
    9        0.401942
   10        4.793754
   11        5.326331
   12        9.475373
   13       10.082386
 
  0.3750000E+00  0.3750000E+00  0.3750000E+00  0.3125000E-01
    1       -8.641491
    2       -6.091455
    3       -6.091455
    4       -5.904048
    5       -5.904048
    6       -5.725364
    7       -1.740848
    8        1.385044
    9        1.385044
   10        3.858162
   11        7.245848
   12        7.245848
   13        8.594493
 
 -0.3750000E+00  0.3750000E+00  0.3750000E+00  0.9375000E-01
    1       -8.528278
    2       -6.058804
    3       -6.047501
    4       -5.924036
    5       -5.905389
    6       -5.490779
    7       -1.959839
    8       -0.202767
    9        0.926938
   10        5.056408
   11        6.995101
   12        8.349112
   13        8.680524
