 vasp.5.3.5 31Mar14 (build Jun 24 2017 20:18:17) complex                        
  
 executed on             LinuxIFC date 2018.08.08  10:18:51
 serial version


--------------------------------------------------------------------------------------------------------


 INCAR:
 POTCAR:    PAW_PBE Cd 06Sep2000                  
 POTCAR:    PAW_PBE Te 08Apr2002                  
 POTCAR:    PAW_PBE Cd 06Sep2000                  
   VRHFIN =Cd : s2 d10                                                          
   LEXCH  = PE                                                                  
   EATOM  =  1293.1815 eV,   95.0462 Ry                                         
                                                                                
   TITEL  = PAW_PBE Cd 06Sep2000                                                
   LULTRA =        F    use ultrasoft PP ?                                      
   IUNSCR =        1    unscreen: 0-lin 1-nonlin 2-no                           
   RPACOR =    2.000    partial core radius                                     
   POMASS =  112.411; ZVAL   =   12.000    mass and valenz                      
   RCORE  =    2.300    outmost cutoff radius                                   
   RWIGS  =    2.980; RWIGS  =    1.577    wigner-seitz radius (au A)           
   ENMAX  =  274.336; ENMIN  =  205.752 eV                                      
   RCLOC  =    2.054    cutoff for local pot                                    
   LCOR   =        T    correct aug charges                                     
   LPAW   =        T    paw PP                                                  
   EAUG   =  456.106                                                            
   DEXC   =    0.000                                                            
   RMAX   =    2.358    core radius for proj-oper                               
   RAUG   =    1.300    factor for augmentation sphere                          
   RDEP   =    2.450    radius for radial grids                                 
   RDEPT  =    1.955    core radius for aug-charge                              
                                                                                
   Atomic configuration                                                         
   12 entries                                                                   
     n  l   j            E        occ.                                          
     1  0  0.50    -26519.7817   2.0000                                         
     2  0  0.50     -3936.9612   2.0000                                         
     2  1  1.50     -3532.2230   6.0000                                         
     3  0  0.50      -733.7908   2.0000                                         
     3  1  1.50      -601.0792   6.0000                                         
     3  2  2.50      -393.5307  10.0000                                         
     4  0  0.50      -105.8977   2.0000                                         
     4  1  1.50       -66.9488   6.0000                                         
     4  2  2.50       -11.7331  10.0000                                         
     5  0  0.50        -5.6592   2.0000                                         
     5  1  0.50        -1.3606   0.0000                                         
     4  3  2.50        -1.3606   0.0000                                         
   Description                                                                  
     l       E           TYP  RCUT    TYP  RCUT                                 
     2    -11.7331479     23  2.300                                             
     2    -13.0937305     23  2.300                                             
     0     -5.6591502     23  2.300                                             
     0     -1.5561433     23  2.300                                             
     1     -2.7211652     23  2.300                                             
     1      8.3548275     23  2.300                                             
  local pseudopotential read in
  partial core-charges read in
  partial kinetic energy density read in
  atomic valenz-charges read in
  non local Contribution for L=           2  read in
    real space projection operators read in
  non local Contribution for L=           2  read in
    real space projection operators read in
  non local Contribution for L=           0  read in
    real space projection operators read in
  non local Contribution for L=           0  read in
    real space projection operators read in
  non local Contribution for L=           1  read in
    real space projection operators read in
  non local Contribution for L=           1  read in
    real space projection operators read in
    PAW grid and wavefunctions read in
 
   number of l-projection  operators is LMAX  =           6
   number of lm-projection operators is LMMAX =          18
 
 POTCAR:    PAW_PBE Te 08Apr2002                  
   VRHFIN =Te: s2p4                                                             
   LEXCH  = PE                                                                  
   EATOM  =   223.2721 eV,   16.4100 Ry                                         
                                                                                
   TITEL  = PAW_PBE Te 08Apr2002                                                
   LULTRA =        F    use ultrasoft PP ?                                      
   IUNSCR =        1    unscreen: 0-lin 1-nonlin 2-no                           
   RPACOR =    2.200    partial core radius                                     
   POMASS =  127.600; ZVAL   =    6.000    mass and valenz                      
   RCORE  =    2.300    outmost cutoff radius                                   
   RWIGS  =    2.900; RWIGS  =    1.535    wigner-seitz radius (au A)           
   ENMAX  =  174.982; ENMIN  =  131.236 eV                                      
   ICORE  =        3    local potential                                         
   LCOR   =        T    correct aug charges                                     
   LPAW   =        T    paw PP                                                  
   EAUG   =  368.792                                                            
   DEXC   =    0.000                                                            
   RMAX   =    2.345    core radius for proj-oper                               
   RAUG   =    1.300    factor for augmentation sphere                          
   RDEP   =    2.397    radius for radial grids                                 
   RDEPT  =    2.174    core radius for aug-charge                              
                                                                                
   Atomic configuration                                                         
   13 entries                                                                   
     n  l   j            E        occ.                                          
     1  0  0.50    -31621.2075   2.0000                                         
     2  0  0.50     -4848.7941   2.0000                                         
     2  1  1.50     -4352.1960   6.0000                                         
     3  0  0.50      -964.9612   2.0000                                         
     3  1  1.50      -803.6179   6.0000                                         
     3  2  2.50      -559.8710  10.0000                                         
     4  0  0.50      -164.3522   2.0000                                         
     4  1  1.50      -114.3756   6.0000                                         
     4  2  2.50       -41.6483  10.0000                                         
     5  0  0.50       -15.1072   2.0000                                         
     5  1  0.50        -5.9526   4.0000                                         
     5  2  1.50        -5.4423   0.0000                                         
     4  3  2.50        -5.4423   0.0000                                         
   Description                                                                  
     l       E           TYP  RCUT    TYP  RCUT                                 
     0    -15.1072389     23  2.300                                             
     0    -16.4678215     23  2.300                                             
     1     -5.9526306     23  2.300                                             
     1     -2.4873968     23  2.300                                             
     2     -5.4423304     23  2.300                                             
     3     -1.3605826     23  2.300                                             
  local pseudopotential read in
  partial core-charges read in
  partial kinetic energy density read in
  atomic valenz-charges read in
  non local Contribution for L=           0  read in
    real space projection operators read in
  non local Contribution for L=           0  read in
    real space projection operators read in
  non local Contribution for L=           1  read in
    real space projection operators read in
  non local Contribution for L=           1  read in
    real space projection operators read in
  non local Contribution for L=           2  read in
    real space projection operators read in
    PAW grid and wavefunctions read in
 
   number of l-projection  operators is LMAX  =           5
   number of lm-projection operators is LMMAX =          13
 
  PAW_PBE Cd 06Sep2000                  :
 energy of atom  1       EATOM=-1293.1815
 kinetic energy error for atom=    0.0742 (will be added to EATOM!!)
  PAW_PBE Te 08Apr2002                  :
 energy of atom  2       EATOM= -223.2721
 kinetic energy error for atom=    0.0028 (will be added to EATOM!!)
 
 
 POSCAR: CdTe bulk                               
  positions in direct lattice
  velocities in cartesian coordinates
  No initial velocities read in
 exchange correlation table for  LEXCH =        8
   RHO(1)=    0.500       N(1)  =     2000
   RHO(2)=  100.500       N(2)  =     4000
 


--------------------------------------------------------------------------------------------------------


 ion  position               nearest neighbor table
   1  0.000  0.000  0.000-   2 2.81   2 2.81   2 2.81   2 2.81
   2  0.250  0.250  0.250-   1 2.81   1 2.81   1 2.81   1 2.81
 
  LATTYP: Found a face centered cubic cell.
 ALAT       =     6.4800000000
  
  Lattice vectors:
  
 A1 = (   3.2400000000,   3.2400000000,   0.0000000000)
 A2 = (   0.0000000000,   3.2400000000,   3.2400000000)
 A3 = (   3.2400000000,   0.0000000000,   3.2400000000)


Analysis of symmetry for initial positions (statically):
=====================================================================
 Subroutine PRICEL returns:
 Original cell was already a primitive cell.
 

 Routine SETGRP: Setting up the symmetry group for a 
 face centered cubic supercell.


 Subroutine GETGRP returns: Found 24 space group operations
 (whereof 24 operations were pure point group operations)
 out of a pool of 48 trial point group operations.


The static configuration has the point symmetry T_d .


Analysis of symmetry for dynamics (positions and initial velocities):
=====================================================================
 Subroutine PRICEL returns:
 Original cell was already a primitive cell.
 

 Routine SETGRP: Setting up the symmetry group for a 
 face centered cubic supercell.


 Subroutine GETGRP returns: Found 24 space group operations
 (whereof 24 operations were pure point group operations)
 out of a pool of 48 trial point group operations.


The dynamic configuration has the point symmetry T_d .
 
 
 KPOINTS: K-points band                           

Automatic generation of k-mesh.
Space group operators:
 irot       det(A)        alpha          n_x          n_y          n_z        tau_x        tau_y        tau_z
    1     1.000000     0.000000     1.000000     0.000000     0.000000     0.000000     0.000000     0.000000
    2     1.000000   120.000000    -0.577350    -0.577350    -0.577350     0.000000     0.000000     0.000000
    3     1.000000   120.000000     0.577350     0.577350     0.577350     0.000000     0.000000     0.000000
    4    -1.000000    90.000000     0.000000    -1.000000     0.000000     0.000000     0.000000     0.000000
    5    -1.000000   180.000000     0.707107     0.707107     0.000000     0.000000     0.000000     0.000000
    6    -1.000000    90.000000     1.000000     0.000000     0.000000     0.000000     0.000000     0.000000
    7     1.000000   180.000000     0.000000     1.000000     0.000000     0.000000     0.000000     0.000000
    8     1.000000   120.000000     0.577350     0.577350    -0.577350     0.000000     0.000000     0.000000
    9     1.000000   120.000000     0.577350    -0.577350    -0.577350     0.000000     0.000000     0.000000
   10    -1.000000    90.000000     0.000000     1.000000     0.000000     0.000000     0.000000     0.000000
   11    -1.000000    90.000000     0.000000     0.000000    -1.000000     0.000000     0.000000     0.000000
   12    -1.000000   180.000000     0.000000     0.707107     0.707107     0.000000     0.000000     0.000000
   13     1.000000   120.000000    -0.577350     0.577350     0.577350     0.000000     0.000000     0.000000
   14     1.000000   120.000000    -0.577350     0.577350    -0.577350     0.000000     0.000000     0.000000
   15     1.000000   180.000000     0.000000     0.000000     1.000000     0.000000     0.000000     0.000000
   16    -1.000000    90.000000    -1.000000     0.000000     0.000000     0.000000     0.000000     0.000000
   17    -1.000000   180.000000     0.707107     0.000000     0.707107     0.000000     0.000000     0.000000
   18    -1.000000    90.000000     0.000000     0.000000     1.000000     0.000000     0.000000     0.000000
   19     1.000000   120.000000    -0.577350    -0.577350     0.577350     0.000000     0.000000     0.000000
   20     1.000000   180.000000     1.000000     0.000000     0.000000     0.000000     0.000000     0.000000
   21     1.000000   120.000000     0.577350    -0.577350     0.577350     0.000000     0.000000     0.000000
   22    -1.000000   180.000000     0.707107    -0.707107     0.000000     0.000000     0.000000     0.000000
   23    -1.000000   180.000000     0.707107     0.000000    -0.707107     0.000000     0.000000     0.000000
   24    -1.000000   180.000000     0.000000    -0.707107     0.707107     0.000000     0.000000     0.000000
 
 Subroutine IBZKPT returns following result:
 ===========================================
 
 Found     10 irreducible k-points:
 
 Following reciprocal coordinates:
            Coordinates               Weight
  0.125000  0.125000  0.125000     96.000000
  0.375000  0.125000  0.125000    288.000000
 -0.375000  0.125000  0.125000    288.000000
 -0.125000  0.125000  0.125000    288.000000
  0.375000  0.375000  0.125000    288.000000
 -0.375000  0.375000  0.125000    576.000000
 -0.125000  0.375000  0.125000    576.000000
 -0.375000 -0.375000  0.125000    288.000000
  0.375000  0.375000  0.375000     96.000000
 -0.375000  0.375000  0.375000    288.000000
 
 Following cartesian coordinates:
            Coordinates               Weight
  0.125000  0.125000  0.125000     96.000000
  0.375000  0.375000 -0.125000    288.000000
 -0.375000 -0.375000  0.625000    288.000000
 -0.125000 -0.125000  0.375000    288.000000
  0.125000  0.625000  0.125000    288.000000
 -0.625000 -0.125000  0.875000    576.000000
 -0.375000  0.125000  0.625000    576.000000
  0.125000 -0.875000  0.125000    288.000000
  0.375000  0.375000  0.375000     96.000000
 -0.375000 -0.375000  1.125000    288.000000
 
 TETIRR: Found    102 inequivalent tetrahedra from     3072


--------------------------------------------------------------------------------------------------------




 Dimension of arrays:
   k-points           NKPTS =     10   k-points in BZ     NKDIM =     10   number of bands    NBANDS=     13
   number of dos      NEDOS =    301   number of ions     NIONS =      2
   non local maximal  LDIM  =      6   non local SUM 2l+1 LMDIM =     18
   total plane-waves  NPLWV =   8000
   max r-space proj   IRMAX =      1   max aug-charges    IRDMAX=   7039
   dimension x,y,z NGX =    20 NGY =   20 NGZ =   20
   dimension x,y,z NGXF=    40 NGYF=   40 NGZF=   40
   support grid    NGXF=    40 NGYF=   40 NGZF=   40
   ions per type =               1   1
 NGX,Y,Z   is equivalent  to a cutoff of   7.26,  7.26,  7.26 a.u.
 NGXF,Y,Z  is equivalent  to a cutoff of  14.51, 14.51, 14.51 a.u.


 I would recommend the setting:
   dimension x,y,z NGX =    19 NGY =   19 NGZ =   19
 SYSTEM =  CdTe bulk relax                         
 POSCAR =  CdTe bulk                               

 Startparameter for this run:
   NWRITE =      2    write-flag & timer
   PREC   = normal    normal or accurate (medium, high low for compatibility)
   ISTART =      0    job   : 0-new  1-cont  2-samecut
   ICHARG =      2    charge: 1-file 2-atom 10-const
   ISPIN  =      1    spin polarized calculation?
   LNONCOLLINEAR =      F non collinear calculations
   LSORBIT =      F    spin-orbit coupling
   INIWAV =      1    electr: 0-lowe 1-rand  2-diag
   LASPH  =      F    aspherical Exc in radial PAW
   METAGGA=      F    non-selfconsistent MetaGGA calc.

 Electronic Relaxation 1
   ENCUT  =  275.0 eV  20.21 Ry    4.50 a.u.   6.20  6.20  6.20*2*pi/ulx,y,z
   ENINI  =  275.0     initial cutoff
   ENAUG  =  456.1 eV  augmentation charge cutoff
   NELM   =     60;   NELMIN=  2; NELMDL=  0     # of ELM steps 
   EDIFF  = 0.1E-03   stopping-criterion for ELM
   LREAL  =      F    real-space projection
   NLSPLINE    = F    spline interpolate recip. space projectors
   LCOMPAT=      F    compatible to vasp.4.4
   GGA_COMPAT  = T    GGA compatible to vasp.4.4-vasp.4.6
   LMAXPAW     = -100 max onsite density
   LMAXMIX     =    2 max onsite mixed and CHGCAR
   VOSKOWN=      0    Vosko Wilk Nusair interpolation
   ROPT   =    0.00000   0.00000
 Ionic relaxation
   EDIFFG = -.1E-01   stopping-criterion for IOM
   NSW    =    100    number of steps for IOM
   NBLOCK =      1;   KBLOCK =    100    inner block; outer block 
   IBRION =      1    ionic relax: 0-MD 1-quasi-New 2-CG
   NFREE  =      0    steps in history (QN), initial steepest desc. (CG)
   ISIF   =      3    stress and relaxation
   IWAVPR =     11    prediction:  0-non 1-charg 2-wave 3-comb
   ISYM   =      2    0-nonsym 1-usesym 2-fastsym
   LCORR  =      T    Harris-Foulkes like correction to forces

   POTIM  = 0.5000    time-step for ionic-motion
   TEIN   =    0.0    initial temperature
   TEBEG  =    0.0;   TEEND  =   0.0 temperature during run
   SMASS  =  -3.00    Nose mass-parameter (am)
   estimated Nose-frequenzy (Omega)   =  0.10E-29 period in steps =****** mass=  -0.480E-27a.u.
   SCALEE = 1.0000    scale energy and forces
   NPACO  =    256;   APACO  = 16.0  distance and # of slots for P.C.
   PSTRESS=    0.0 pullay stress

  Mass of Ions in am
   POMASS = 112.41127.60
  Ionic Valenz
   ZVAL   =  12.00  6.00
  Atomic Wigner-Seitz radii
   RWIGS  =  -1.00 -1.00
  virtual crystal weights 
   VCA    =   1.00  1.00
   NELECT =      18.0000    total number of electrons
   NUPDOWN=      -1.0000    fix difference up-down

 DOS related values:
   EMIN   =  10.00;   EMAX   =-10.00  energy-range for DOS
   EFERMI =   0.00
   ISMEAR =    -5;   SIGMA  =   0.20  broadening in eV -4-tet -1-fermi 0-gaus

 Electronic relaxation 2 (details)
   IALGO  =     38    algorithm
   LDIAG  =      T    sub-space diagonalisation (order eigenvalues)
   LSUBROT=      F    optimize rotation matrix (better conditioning)
   TURBO    =      0    0=normal 1=particle mesh
   IRESTART =      0    0=no restart 2=restart with 2 vectors
   NREBOOT  =      0    no. of reboots
   NMIN     =      0    reboot dimension
   EREF     =   0.00    reference energy to select bands
   IMIX   =      4    mixing-type and parameters
     AMIX     =   0.40;   BMIX     =  1.00
     AMIX_MAG =   1.60;   BMIX_MAG =  1.00
     AMIN     =   0.10
     WC   =   100.;   INIMIX=   1;  MIXPRE=   1;  MAXMIX= -45

 Intra band minimization:
   WEIMIN = 0.0010     energy-eigenvalue tresh-hold
   EBREAK =  0.19E-05  absolut break condition
   DEPER  =   0.30     relativ break condition  

   TIME   =   0.40     timestep for ELM

  volume/ion in A,a.u.               =      34.01       229.53
  Fermi-wavevector in a.u.,A,eV,Ry     =   1.051019  1.986138 15.029559  1.104641
  Thomas-Fermi vector in A             =   2.186046
 
 Write flags
   LWAVE  =      T    write WAVECAR
   LCHARG =      T    write CHGCAR
   LVTOT  =      F    write LOCPOT, total local potential
   LVHAR  =      F    write LOCPOT, Hartree potential only
   LELF   =      F    write electronic localiz. function (ELF)
   LORBIT =      0    0 simple, 1 ext, 2 COOP (PROOUT)


 Dipole corrections
   LMONO  =      F    monopole corrections only (constant potential shift)
   LDIPOL =      F    correct potential (dipole corrections)
   IDIPOL =      0    1-x, 2-y, 3-z, 4-all directions 
   EPSILON=  1.0000000 bulk dielectric constant

 Exchange correlation treatment:
   GGA     =    --    GGA type
   LEXCH   =     8    internal setting for exchange type
   VOSKOWN=      0    Vosko Wilk Nusair interpolation
   LHFCALC =     F    Hartree Fock is set to
   LHFONE  =     F    Hartree Fock one center treatment
   AEXX    =    0.0000 exact exchange contribution

 Linear response parameters
   LEPSILON=     F    determine dielectric tensor
   LRPA    =     F    only Hartree local field effects (RPA)
   LNABLA  =     F    use nabla operator in PAW spheres
   LVEL    =     F    velocity operator in full k-point grid
   LINTERFAST=   F  fast interpolation
   KINTER  =     0    interpolate to denser k-point grid
   CSHIFT  =0.1000    complex shift for real part using Kramers Kronig
   OMEGAMAX=  -1.0    maximum frequency
   DEG_THRESHOLD= 0.2000000E-02 threshold for treating states as degnerate
   RTIME   =    0.100 relaxation time in fs

 Orbital magnetization related:
   ORBITALMAG=     F  switch on orbital magnetization
   LCHIMAG   =     F  perturbation theory with respect to B field
   DQ        =  0.001000  dq finite difference perturbation B field



--------------------------------------------------------------------------------------------------------


 quasi-Newton-method for relaxation of ions
 charge density and potential will be updated during run
 non-spin polarized calculation
 Variant of blocked Davidson
 Davidson routine will perform the subspace rotation
 perform sub-space diagonalisation
    after iterative eigenvector-optimisation
 modified Broyden-mixing scheme, WC =      100.0
 initial mixing is a Kerker type mixing with AMIX =  0.4000 and BMIX =      1.0000
 Hartree-type preconditioning will be used
 using additional bands            4
 reciprocal scheme for non local part
 use partial core corrections
 calculate Harris-corrections to forces 
   (improved forces if not selfconsistent)
 use gradient corrections 
 use of overlap-Matrix (Vanderbilt PP)
 Fermi weights with tetrahedron method with Bloechl corrections


--------------------------------------------------------------------------------------------------------


  energy-cutoff  :      275.00
  volume of cell :       68.02
      direct lattice vectors                 reciprocal lattice vectors
     3.240000000  3.240000000  0.000000000     0.154320988  0.154320988 -0.154320988
     0.000000000  3.240000000  3.240000000    -0.154320988  0.154320988  0.154320988
     3.240000000  0.000000000  3.240000000     0.154320988 -0.154320988  0.154320988

  length of vectors
     4.582051942  4.582051942  4.582051942     0.267291791  0.267291791  0.267291791


 
 k-points in units of 2pi/SCALE and weight: K-points band                           
   0.12500000  0.12500000  0.12500000       0.031
   0.37500000  0.37500000 -0.12500000       0.094
  -0.37500000 -0.37500000  0.62500000       0.094
  -0.12500000 -0.12500000  0.37500000       0.094
   0.12500000  0.62500000  0.12500000       0.094
  -0.62500000 -0.12500000  0.87500000       0.188
  -0.37500000  0.12500000  0.62500000       0.188
   0.12500000 -0.87500000  0.12500000       0.094
   0.37500000  0.37500000  0.37500000       0.031
  -0.37500000 -0.37500000  1.12500000       0.094
 
 k-points in reciprocal lattice and weights: K-points band                           
   0.12500000  0.12500000  0.12500000       0.031
   0.37500000  0.12500000  0.12500000       0.094
  -0.37500000  0.12500000  0.12500000       0.094
  -0.12500000  0.12500000  0.12500000       0.094
   0.37500000  0.37500000  0.12500000       0.094
  -0.37500000  0.37500000  0.12500000       0.188
  -0.12500000  0.37500000  0.12500000       0.188
  -0.37500000 -0.37500000  0.12500000       0.094
   0.37500000  0.37500000  0.37500000       0.031
  -0.37500000  0.37500000  0.37500000       0.094
 
 position of ions in fractional coordinates (direct lattice) 
   0.00000000  0.00000000  0.00000000
   0.25000000  0.25000000  0.25000000
 
 position of ions in cartesian coordinates  (Angst):
   0.00000000  0.00000000  0.00000000
   1.62000000  1.62000000  1.62000000
 


--------------------------------------------------------------------------------------------------------


 k-point  1 :   0.1250 0.1250 0.1250  plane waves:     706
 k-point  2 :   0.3750 0.1250 0.1250  plane waves:     705
 k-point  3 :  -0.3750 0.1250 0.1250  plane waves:     707
 k-point  4 :  -0.1250 0.1250 0.1250  plane waves:     697
 k-point  5 :   0.3750 0.3750 0.1250  plane waves:     703
 k-point  6 :  -0.3750 0.3750 0.1250  plane waves:     709
 k-point  7 :  -0.1250 0.3750 0.1250  plane waves:     700
 k-point  8 :  -0.3750-0.3750 0.1250  plane waves:     706
 k-point  9 :   0.3750 0.3750 0.3750  plane waves:     709
 k-point 10 :  -0.3750 0.3750 0.3750  plane waves:     702

 maximum number of plane-waves:       709
 maximum index in each direction: 
   IXMAX=    6   IYMAX=    6   IZMAX=    6
   IXMIN=   -6   IYMIN=   -6   IZMIN=   -6

 WARNING: aliasing errors must be expected set NGX to  26 to avoid them
 WARNING: aliasing errors must be expected set NGY to  26 to avoid them
 WARNING: aliasing errors must be expected set NGZ to  26 to avoid them
 aliasing errors are usually negligible using standard VASP settings
 and one can safely disregard these warnings

 total amount of memory used by VASP on root node    40034. kBytes
========================================================================

   base      :      30000. kBytes
   nonl-proj :       2064. kBytes
   grid      :       6400. kBytes
   one-center:         31. kBytes
   wavefun   :       1539. kBytes
 
     INWAV:  cpu time    0.00: real time    0.00
 Broyden mixing: mesh for mixing (old mesh)
   NGX = 13   NGY = 13   NGZ = 13
  (NGX  = 40   NGY  = 40   NGZ  = 40)
  gives a total of   2197 points

 initial charge density was supplied:
 charge density of overlapping atoms calculated
 number of electron      18.0000000 magnetization 
 keeping initial charge density in first step


--------------------------------------------------------------------------------------------------------


 Maximum index for augmentation-charges         6603 (set IRDMAX)


--------------------------------------------------------------------------------------------------------


 First call to EWALD:  gamma=   0.434
 Maximum number of real-space cells 3x 3x 3
 Maximum number of reciprocal cells 3x 3x 3

    FEWALD:  cpu time    0.00: real time    0.00


----------------------------------------- Iteration    1(   1)  ---------------------------------------


    POTLOK:  cpu time    0.05: real time    0.11
    SETDIJ:  cpu time    0.00: real time    0.00
     EDDAV:  cpu time    0.23: real time    0.47
 BZINTS: Fermi energy:  8.286337; 18.000000 electrons
         Band energy:   9.201407;  BLOECHL correction: -0.046314
       DOS:  cpu time    0.00: real time    0.00
    --------------------------------------------
      LOOP:  cpu time    0.29: real time    0.59

 eigenvalue-minimisations  :   268
 total energy-change (2. order) : 0.7030824E+02  (-0.6110523E+03)
 number of electron      18.0000000 magnetization 
 augmentation part       18.0000000 magnetization 

 Free energy of the ion-electron system (eV)
  ---------------------------------------------------
  alpha Z        PSCENC =        50.23496175
  Ewald energy   TEWEN  =     -1045.26673093
  -Hartree energ DENC   =      -509.88395656
  -exchange      EXHF   =         0.00000000
  -V(xc)+E(xc)   XCENC  =       -22.61950811
  PAW double counting   =      1404.43023187    -1332.16472941
  entropy T*S    EENTRO =         0.00000000
  eigenvalues    EBANDS =         9.20140716
  atomic energy  EATOM  =      1516.37656012
  ---------------------------------------------------
  free energy    TOTEN  =        70.30823588 eV

  energy without entropy =       70.30823588  energy(sigma->0) =       70.30823588


--------------------------------------------------------------------------------------------------------




----------------------------------------- Iteration    1(   2)  ---------------------------------------


     EDDAV:  cpu time    0.27: real time    0.55
 BZINTS: Fermi energy:  2.073072; 18.000000 electrons
         Band energy: -63.865947;  BLOECHL correction:  0.000000
       DOS:  cpu time    0.00: real time    0.00
    --------------------------------------------
      LOOP:  cpu time    0.27: real time    0.55

 eigenvalue-minimisations  :   330
 total energy-change (2. order) :-0.7306735E+02  (-0.7137830E+02)
 number of electron      18.0000000 magnetization 
 augmentation part       18.0000000 magnetization 

 Free energy of the ion-electron system (eV)
  ---------------------------------------------------
  alpha Z        PSCENC =        50.23496175
  Ewald energy   TEWEN  =     -1045.26673093
  -Hartree energ DENC   =      -509.88395656
  -exchange      EXHF   =         0.00000000
  -V(xc)+E(xc)   XCENC  =       -22.61950811
  PAW double counting   =      1404.43023187    -1332.16472941
  entropy T*S    EENTRO =         0.00000000
  eigenvalues    EBANDS =       -63.86594689
  atomic energy  EATOM  =      1516.37656012
  ---------------------------------------------------
  free energy    TOTEN  =        -2.75911817 eV

  energy without entropy =       -2.75911817  energy(sigma->0) =       -2.75911817


--------------------------------------------------------------------------------------------------------




----------------------------------------- Iteration    1(   3)  ---------------------------------------


     EDDAV:  cpu time    0.24: real time    0.48
 BZINTS: Fermi energy:  1.915452; 18.000000 electrons
         Band energy: -66.084580;  BLOECHL correction:  0.000000
       DOS:  cpu time    0.00: real time    0.00
    --------------------------------------------
      LOOP:  cpu time    0.24: real time    0.48

 eigenvalue-minimisations  :   285
 total energy-change (2. order) :-0.2218633E+01  (-0.2216646E+01)
 number of electron      18.0000000 magnetization 
 augmentation part       18.0000000 magnetization 

 Free energy of the ion-electron system (eV)
  ---------------------------------------------------
  alpha Z        PSCENC =        50.23496175
  Ewald energy   TEWEN  =     -1045.26673093
  -Hartree energ DENC   =      -509.88395656
  -exchange      EXHF   =         0.00000000
  -V(xc)+E(xc)   XCENC  =       -22.61950811
  PAW double counting   =      1404.43023187    -1332.16472941
  entropy T*S    EENTRO =         0.00000000
  eigenvalues    EBANDS =       -66.08458004
  atomic energy  EATOM  =      1516.37656012
  ---------------------------------------------------
  free energy    TOTEN  =        -4.97775132 eV

  energy without entropy =       -4.97775132  energy(sigma->0) =       -4.97775132


--------------------------------------------------------------------------------------------------------




----------------------------------------- Iteration    1(   4)  ---------------------------------------


     EDDAV:  cpu time    0.30: real time    0.60
 BZINTS: Fermi energy:  1.910678; 18.000000 electrons
         Band energy: -66.107005;  BLOECHL correction:  0.000000
       DOS:  cpu time    0.00: real time    0.00
    --------------------------------------------
      LOOP:  cpu time    0.30: real time    0.60

 eigenvalue-minimisations  :   385
 total energy-change (2. order) :-0.2242464E-01  (-0.2242387E-01)
 number of electron      18.0000000 magnetization 
 augmentation part       18.0000000 magnetization 

 Free energy of the ion-electron system (eV)
  ---------------------------------------------------
  alpha Z        PSCENC =        50.23496175
  Ewald energy   TEWEN  =     -1045.26673093
  -Hartree energ DENC   =      -509.88395656
  -exchange      EXHF   =         0.00000000
  -V(xc)+E(xc)   XCENC  =       -22.61950811
  PAW double counting   =      1404.43023187    -1332.16472941
  entropy T*S    EENTRO =         0.00000000
  eigenvalues    EBANDS =       -66.10700468
  atomic energy  EATOM  =      1516.37656012
  ---------------------------------------------------
  free energy    TOTEN  =        -5.00017597 eV

  energy without entropy =       -5.00017597  energy(sigma->0) =       -5.00017597


--------------------------------------------------------------------------------------------------------




----------------------------------------- Iteration    1(   5)  ---------------------------------------


     EDDAV:  cpu time    0.24: real time    0.50
 BZINTS: Fermi energy:  1.910455; 18.000000 electrons
         Band energy: -66.107036;  BLOECHL correction:  0.000000
       DOS:  cpu time    0.00: real time    0.00
    CHARGE:  cpu time    0.03: real time    0.05
    MIXING:  cpu time    0.00: real time    0.00
    --------------------------------------------
      LOOP:  cpu time    0.27: real time    0.55

 eigenvalue-minimisations  :   290
 total energy-change (2. order) :-0.3102744E-04  (-0.3102748E-04)
 number of electron      18.0000066 magnetization 
 augmentation part        4.4705531 magnetization 

 Broyden mixing:
  rms(total) = 0.56004E+00    rms(broyden)= 0.55998E+00
  rms(prec ) = 0.85675E+00
  weight for this iteration     100.00

 Free energy of the ion-electron system (eV)
  ---------------------------------------------------
  alpha Z        PSCENC =        50.23496175
  Ewald energy   TEWEN  =     -1045.26673093
  -Hartree energ DENC   =      -509.88395656
  -exchange      EXHF   =         0.00000000
  -V(xc)+E(xc)   XCENC  =       -22.61950811
  PAW double counting   =      1404.43023187    -1332.16472941
  entropy T*S    EENTRO =         0.00000000
  eigenvalues    EBANDS =       -66.10703571
  atomic energy  EATOM  =      1516.37656012
  ---------------------------------------------------
  free energy    TOTEN  =        -5.00020699 eV

  energy without entropy =       -5.00020699  energy(sigma->0) =       -5.00020699


--------------------------------------------------------------------------------------------------------




----------------------------------------- Iteration    1(   6)  ---------------------------------------


    POTLOK:  cpu time    0.05: real time    0.11
    SETDIJ:  cpu time    0.00: real time    0.00
     EDDAV:  cpu time    0.24: real time    0.50
 BZINTS: Fermi energy:  2.126416; 18.000000 electrons
         Band energy: -72.049111;  BLOECHL correction:  0.000000
       DOS:  cpu time    0.00: real time    0.00
    CHARGE:  cpu time    0.03: real time    0.06
    MIXING:  cpu time    0.00: real time    0.00
    --------------------------------------------
      LOOP:  cpu time    0.33: real time    0.67

 eigenvalue-minimisations  :   285
 total energy-change (2. order) : 0.2164736E+00  (-0.4483519E-01)
 number of electron      18.0000066 magnetization 
 augmentation part        4.5547338 magnetization 

 Broyden mixing:
  rms(total) = 0.45317E+00    rms(broyden)= 0.45317E+00
  rms(prec ) = 0.51635E+00
  weight for this iteration     100.00

 eigenvalues of (default mixing * dielectric matrix)
  average eigenvalue GAMMA=   2.4751
  2.4751

 Free energy of the ion-electron system (eV)
  ---------------------------------------------------
  alpha Z        PSCENC =        50.23496175
  Ewald energy   TEWEN  =     -1045.26673093
  -Hartree energ DENC   =      -504.10222566
  -exchange      EXHF   =         0.00000000
  -V(xc)+E(xc)   XCENC  =       -22.68674316
  PAW double counting   =      1511.10362766    -1438.39407186
  entropy T*S    EENTRO =         0.00000000
  eigenvalues    EBANDS =       -72.04911127
  atomic energy  EATOM  =      1516.37656012
  ---------------------------------------------------
  free energy    TOTEN  =        -4.78373335 eV

  energy without entropy =       -4.78373335  energy(sigma->0) =       -4.78373335


--------------------------------------------------------------------------------------------------------




----------------------------------------- Iteration    1(   7)  ---------------------------------------


    POTLOK:  cpu time    0.05: real time    0.09
    SETDIJ:  cpu time    0.01: real time    0.02
     EDDAV:  cpu time    0.25: real time    0.50
 BZINTS: Fermi energy:  2.236306; 18.000000 electrons
         Band energy: -73.164786;  BLOECHL correction:  0.000000
       DOS:  cpu time    0.00: real time    0.00
    CHARGE:  cpu time    0.03: real time    0.05
    MIXING:  cpu time    0.00: real time    0.00
    --------------------------------------------
      LOOP:  cpu time    0.33: real time    0.66

 eigenvalue-minimisations  :   295
 total energy-change (2. order) : 0.1637681E-01  (-0.1202759E-01)
 number of electron      18.0000065 magnetization 
 augmentation part        4.5840324 magnetization 

 Broyden mixing:
  rms(total) = 0.17078E+00    rms(broyden)= 0.17078E+00
  rms(prec ) = 0.18832E+00
  weight for this iteration     100.00

 eigenvalues of (default mixing * dielectric matrix)
  average eigenvalue GAMMA=   1.6393
  0.9747  2.3040

 Free energy of the ion-electron system (eV)
  ---------------------------------------------------
  alpha Z        PSCENC =        50.23496175
  Ewald energy   TEWEN  =     -1045.26673093
  -Hartree energ DENC   =      -502.97943041
  -exchange      EXHF   =         0.00000000
  -V(xc)+E(xc)   XCENC  =       -22.62916448
  PAW double counting   =      1643.26262771    -1570.60139467
  entropy T*S    EENTRO =         0.00000000
  eigenvalues    EBANDS =       -73.16478562
  atomic energy  EATOM  =      1516.37656012
  ---------------------------------------------------
  free energy    TOTEN  =        -4.76735654 eV

  energy without entropy =       -4.76735654  energy(sigma->0) =       -4.76735654


--------------------------------------------------------------------------------------------------------




----------------------------------------- Iteration    1(   8)  ---------------------------------------


    POTLOK:  cpu time    0.05: real time    0.11
    SETDIJ:  cpu time    0.01: real time    0.01
     EDDAV:  cpu time    0.23: real time    0.46
 BZINTS: Fermi energy:  2.241014; 18.000000 electrons
         Band energy: -72.607921;  BLOECHL correction:  0.000000
       DOS:  cpu time    0.00: real time    0.00
    CHARGE:  cpu time    0.03: real time    0.06
    MIXING:  cpu time    0.00: real time    0.00
    --------------------------------------------
      LOOP:  cpu time    0.32: real time    0.63

 eigenvalue-minimisations  :   265
 total energy-change (2. order) :-0.4214546E-03  (-0.1017491E-02)
 number of electron      18.0000065 magnetization 
 augmentation part        4.5773708 magnetization 

 Broyden mixing:
  rms(total) = 0.52872E-01    rms(broyden)= 0.52872E-01
  rms(prec ) = 0.61860E-01
  weight for this iteration     100.00

 eigenvalues of (default mixing * dielectric matrix)
  average eigenvalue GAMMA=   1.6695
  2.6401  1.1842  1.1842

 Free energy of the ion-electron system (eV)
  ---------------------------------------------------
  alpha Z        PSCENC =        50.23496175
  Ewald energy   TEWEN  =     -1045.26673093
  -Hartree energ DENC   =      -503.44494763
  -exchange      EXHF   =         0.00000000
  -V(xc)+E(xc)   XCENC  =       -22.57864759
  PAW double counting   =      1706.86420347    -1634.34525608
  entropy T*S    EENTRO =         0.00000000
  eigenvalues    EBANDS =       -72.60792111
  atomic energy  EATOM  =      1516.37656012
  ---------------------------------------------------
  free energy    TOTEN  =        -4.76777799 eV

  energy without entropy =       -4.76777799  energy(sigma->0) =       -4.76777799


--------------------------------------------------------------------------------------------------------




----------------------------------------- Iteration    1(   9)  ---------------------------------------


    POTLOK:  cpu time    0.05: real time    0.09
    SETDIJ:  cpu time    0.01: real time    0.02
     EDDAV:  cpu time    0.26: real time    0.51
 BZINTS: Fermi energy:  2.244030; 18.000000 electrons
         Band energy: -72.849348;  BLOECHL correction:  0.000000
       DOS:  cpu time    0.00: real time    0.00
    CHARGE:  cpu time    0.03: real time    0.06
    MIXING:  cpu time    0.00: real time    0.00
    --------------------------------------------
      LOOP:  cpu time    0.34: real time    0.68

 eigenvalue-minimisations  :   305
 total energy-change (2. order) :-0.3003087E-03  (-0.9361415E-04)
 number of electron      18.0000065 magnetization 
 augmentation part        4.5785616 magnetization 

 Broyden mixing:
  rms(total) = 0.11530E-01    rms(broyden)= 0.11530E-01
  rms(prec ) = 0.14132E-01
  weight for this iteration     100.00

 eigenvalues of (default mixing * dielectric matrix)
  average eigenvalue GAMMA=   1.5573
  2.4947  1.5850  0.9618  1.1874

 Free energy of the ion-electron system (eV)
  ---------------------------------------------------
  alpha Z        PSCENC =        50.23496175
  Ewald energy   TEWEN  =     -1045.26673093
  -Hartree energ DENC   =      -503.20178160
  -exchange      EXHF   =         0.00000000
  -V(xc)+E(xc)   XCENC  =       -22.56388839
  PAW double counting   =      1745.47201782    -1672.96986868
  entropy T*S    EENTRO =         0.00000000
  eigenvalues    EBANDS =       -72.84934839
  atomic energy  EATOM  =      1516.37656012
  ---------------------------------------------------
  free energy    TOTEN  =        -4.76807830 eV

  energy without entropy =       -4.76807830  energy(sigma->0) =       -4.76807830


--------------------------------------------------------------------------------------------------------




----------------------------------------- Iteration    1(  10)  ---------------------------------------


    POTLOK:  cpu time    0.05: real time    0.10
    SETDIJ:  cpu time    0.01: real time    0.02
     EDDAV:  cpu time    0.20: real time    0.38
 BZINTS: Fermi energy:  2.242930; 18.000000 electrons
         Band energy: -72.798372;  BLOECHL correction:  0.000000
       DOS:  cpu time    0.00: real time    0.00
    --------------------------------------------
      LOOP:  cpu time    0.25: real time    0.51

 eigenvalue-minimisations  :   205
 total energy-change (2. order) :-0.4601420E-04  (-0.9515372E-05)
 number of electron      18.0000065 magnetization 
 augmentation part        4.5785616 magnetization 

 Free energy of the ion-electron system (eV)
  ---------------------------------------------------
  alpha Z        PSCENC =        50.23496175
  Ewald energy   TEWEN  =     -1045.26673093
  -Hartree energ DENC   =      -503.25199470
  -exchange      EXHF   =         0.00000000
  -V(xc)+E(xc)   XCENC  =       -22.56050269
  PAW double counting   =      1747.45919390    -1674.96123947
  entropy T*S    EENTRO =         0.00000000
  eigenvalues    EBANDS =       -72.79837228
  atomic energy  EATOM  =      1516.37656012
  ---------------------------------------------------
  free energy    TOTEN  =        -4.76812432 eV

  energy without entropy =       -4.76812432  energy(sigma->0) =       -4.76812432


--------------------------------------------------------------------------------------------------------




 average (electrostatic) potential at core
  the test charge radii are     1.0698  1.1897
  (the norm of the test charge is              1.0000)
       1 -39.0577       2 -91.3468
 
 
 
 E-fermi :   2.2429     XC(G=0):  -8.5924     alpha+bet : -7.4320


 k-point     1 :       0.1250    0.1250    0.1250
  band No.  band energies     occupation 
      1      -8.7691      2.00000
      2      -5.9224      2.00000
      3      -5.9224      2.00000
      4      -5.8876      2.00000
      5      -5.6732      2.00000
      6      -5.6732      2.00000
      7       1.1253      2.00000
      8       2.2135      2.00000
      9       2.2135      2.00000
     10       3.9961      0.00000
     11       6.9371      0.00000
     12       7.1626      0.00000
     13       7.1626      0.00000

 k-point     2 :       0.3750    0.1250    0.1250
  band No.  band energies     occupation 
      1      -8.5424      2.00000
      2      -5.8837      2.00000
      3      -5.8727      2.00000
      4      -5.6827      2.00000
      5      -5.6798      2.00000
      6      -5.5999      2.00000
      7      -0.8596      2.00000
      8       1.0695      2.00000
      9       1.8739      2.00000
     10       4.9275      0.00000
     11       7.3907      0.00000
     12       7.6181      0.00000
     13       7.9871      0.00000

 k-point     3 :      -0.3750    0.1250    0.1250
  band No.  band energies     occupation 
      1      -8.4130      2.00000
      2      -5.8620      2.00000
      3      -5.8548      2.00000
      4      -5.6778      2.00000
      5      -5.6616      2.00000
      6      -5.3060      2.00000
      7      -1.9506      2.00000
      8       0.9855      2.00000
      9       1.3809      2.00000
     10       4.8431      0.00000
     11       7.1528      0.00000
     12       7.9747      0.00000
     13       9.3213      0.00000

 k-point     4 :      -0.1250    0.1250    0.1250
  band No.  band energies     occupation 
      1      -8.6361      2.00000
      2      -5.8930      2.00000
      3      -5.8850      2.00000
      4      -5.7802      2.00000
      5      -5.6744      2.00000
      6      -5.6640      2.00000
      7      -0.0286      2.00000
      8       1.6427      2.00000
      9       1.6731      2.00000
     10       4.9322      0.00000
     11       6.3557      0.00000
     12       7.9353      0.00000
     13       8.0170      0.00000

 k-point     5 :       0.3750    0.3750    0.1250
  band No.  band energies     occupation 
      1      -8.4519      2.00000
      2      -5.8387      2.00000
      3      -5.8286      2.00000
      4      -5.7397      2.00000
      5      -5.6528      2.00000
      6      -5.4896      2.00000
      7      -1.0967      2.00000
      8       0.8056      2.00000
      9       1.0031      2.00000
     10       5.3176      0.00000
     11       5.9388      0.00000
     12       8.5408      0.00000
     13       9.2637      0.00000

 k-point     6 :      -0.3750    0.3750    0.1250
  band No.  band energies     occupation 
      1      -8.3282      2.00000
      2      -5.8201      2.00000
      3      -5.8055      2.00000
      4      -5.7107      2.00000
      5      -5.6635      2.00000
      6      -5.1516      2.00000
      7      -1.8195      2.00000
      8      -0.0592      2.00000
      9       0.6000      2.00000
     10       5.8427      0.00000
     11       6.8825      0.00000
     12       8.2607      0.00000
     13       9.6887      0.00000

 k-point     7 :      -0.1250    0.3750    0.1250
  band No.  band energies     occupation 
      1      -8.4144      2.00000
      2      -5.8495      2.00000
      3      -5.8394      2.00000
      4      -5.6996      2.00000
      5      -5.6626      2.00000
      6      -5.3617      2.00000
      7      -1.5232      2.00000
      8       0.4040      2.00000
      9       1.2306      2.00000
     10       5.6010      0.00000
     11       6.9096      0.00000
     12       7.8110      0.00000
     13       9.0837      0.00000

 k-point     8 :      -0.3750   -0.3750    0.1250
  band No.  band energies     occupation 
      1      -8.3275      2.00000
      2      -5.8009      2.00000
      3      -5.7832      2.00000
      4      -5.7489      2.00000
      5      -5.6475      2.00000
      6      -5.2090      2.00000
      7      -1.8219      2.00000
      8       0.2666      2.00000
      9       0.6184      2.00000
     10       5.0887      0.00000
     11       5.6446      0.00000
     12       9.9276      0.00000
     13      10.5360      0.00000

 k-point     9 :       0.3750    0.3750    0.3750
  band No.  band energies     occupation 
      1      -8.4872      2.00000
      2      -5.8766      2.00000
      3      -5.8766      2.00000
      4      -5.6673      2.00000
      5      -5.6673      2.00000
      6      -5.4801      2.00000
      7      -1.5806      2.00000
      8       1.6706      2.00000
      9       1.6706      2.00000
     10       4.2320      0.00000
     11       7.5698      0.00000
     12       7.5698      0.00000
     13       9.0174      0.00000

 k-point    10 :      -0.3750    0.3750    0.3750
  band No.  band energies     occupation 
      1      -8.3633      2.00000
      2      -5.8407      2.00000
      3      -5.8268      2.00000
      4      -5.6902      2.00000
      5      -5.6692      2.00000
      6      -5.2148      2.00000
      7      -1.8097      2.00000
      8      -0.0187      2.00000
      9       1.1793      2.00000
     10       5.4230      0.00000
     11       7.3624      0.00000
     12       8.7207      0.00000
     13       9.1079      0.00000


--------------------------------------------------------------------------------------------------------


 soft charge-density along one line, spin component           1
         0         1         2         3         4         5         6         7         8         9
x    13.4214    0.0000    3.1660   -3.4412    0.0873   -0.1631   -0.3108   -0.0017   -0.2082    0.0119
x    -0.0193    0.0062    0.0265   -0.0003    0.0128   -0.0002    0.0027    0.0000    0.0002    0.0000
x     0.0000    0.0000
y    13.4214    0.0000    3.1660   -3.4412    0.0873   -0.1631   -0.3108   -0.0017   -0.2082    0.0119
y    -0.0193    0.0062    0.0265   -0.0003    0.0128   -0.0002    0.0027    0.0000    0.0002    0.0000
y     0.0000    0.0000
z    13.4214    0.0000    3.1660   -3.4412    0.0873   -0.1631   -0.3108   -0.0017   -0.2082    0.0119
z    -0.0193    0.0062    0.0265   -0.0003    0.0128   -0.0002    0.0027    0.0000    0.0002    0.0000
z     0.0000    0.0000
 total charge-density along one line
x    18.0000    0.0000    8.2120   -2.4441    4.0554   -0.1610    1.3149   -0.2418    0.2309   -0.0005
x     0.0135   -0.0025    0.0005   -0.0012    0.0130   -0.0018    0.0075    0.0002   -0.0010   -0.0002
x    -0.0010   -0.0000    0.0007   -0.0000    0.0003    0.0000   -0.0004    0.0000    0.0000   -0.0000
x     0.0002    0.0000   -0.0001    0.0000   -0.0001    0.0000    0.0001   -0.0000    0.0000    0.0000
x    -0.0001   -0.0000
y    18.0000    0.0000    8.2120   -2.4441    4.0554   -0.1610    1.3149   -0.2418    0.2309   -0.0005
y     0.0135   -0.0025    0.0005   -0.0012    0.0130   -0.0018    0.0075    0.0002   -0.0010   -0.0002
y    -0.0010   -0.0000    0.0007   -0.0000    0.0003    0.0000   -0.0004    0.0000    0.0000   -0.0000
y     0.0002    0.0000   -0.0001    0.0000   -0.0001    0.0000    0.0001   -0.0000    0.0000    0.0000
y    -0.0001   -0.0000
z    18.0000    0.0000    8.2120   -2.4441    4.0554   -0.1610    1.3149   -0.2418    0.2309   -0.0005
z     0.0135   -0.0025    0.0005   -0.0012    0.0130   -0.0018    0.0075    0.0002   -0.0010   -0.0002
z    -0.0010   -0.0000    0.0007   -0.0000    0.0003    0.0000   -0.0004    0.0000    0.0000   -0.0000
z     0.0002    0.0000   -0.0001    0.0000   -0.0001    0.0000    0.0001   -0.0000    0.0000    0.0000
z    -0.0001   -0.0000
 
 pseudopotential strength for first ion, spin component:           1
-17.844   0.000  -0.000   0.000   0.000   0.000  -0.000   0.000   0.000   0.000 -17.887   0.000  -0.000   0.000   0.000   0.000
 -0.000   0.000 -17.844   0.000  -0.000   0.000  -0.000   0.000   0.000   0.000  -0.000   0.000 -17.887   0.000  -0.000   0.000
  0.000   0.000  -0.000   0.000 -17.845   0.000  -0.000   0.000  -0.000   0.000   0.000   0.000  -0.000   0.000 -17.888   0.000
 -0.000   0.000  -0.000   0.000  -0.000   0.000 -17.844   0.000  -0.000   0.000  -0.000   0.000  -0.000   0.000  -0.000   0.000
  0.000   0.000   0.000   0.000  -0.000   0.000  -0.000   0.000 -17.845   0.000   0.000   0.000   0.000   0.000  -0.000   0.000
-17.887   0.000  -0.000   0.000   0.000   0.000  -0.000   0.000   0.000   0.000 -17.910   0.000  -0.000   0.000   0.000   0.000
 -0.000   0.000 -17.887   0.000  -0.000   0.000  -0.000   0.000   0.000   0.000  -0.000   0.000 -17.910   0.000  -0.000   0.000
  0.000   0.000  -0.000   0.000 -17.888   0.000  -0.000   0.000  -0.000   0.000   0.000   0.000  -0.000   0.000 -17.911   0.000
 -0.000   0.000  -0.000   0.000  -0.000   0.000 -17.887   0.000  -0.000   0.000  -0.000   0.000  -0.000   0.000  -0.000   0.000
  0.000   0.000   0.000   0.000  -0.000   0.000  -0.000   0.000 -17.888   0.000   0.000   0.000   0.000   0.000  -0.000   0.000
  0.000   0.000   0.000   0.000   0.000   0.000   0.000   0.000  -0.000   0.000   0.000   0.000   0.000   0.000   0.000   0.000
  0.000   0.000   0.000   0.000   0.000   0.000   0.000   0.000  -0.000   0.000   0.000   0.000   0.000   0.000   0.000   0.000
 -0.000   0.000  -0.000   0.000  -0.000   0.000  -0.003   0.000  -0.000   0.000  -0.000   0.000  -0.000   0.000  -0.000   0.000
 -0.003   0.000  -0.000   0.000   0.000   0.000  -0.000   0.000   0.000   0.000  -0.003   0.000  -0.000   0.000   0.000   0.000
 -0.000   0.000  -0.003   0.000  -0.000   0.000  -0.000   0.000   0.000   0.000  -0.000   0.000  -0.003   0.000  -0.000   0.000
 -0.000   0.000  -0.000   0.000  -0.000   0.000  -0.003   0.000  -0.000   0.000  -0.000   0.000  -0.000   0.000  -0.000   0.000
 -0.003   0.000  -0.000   0.000   0.000   0.000  -0.000   0.000   0.000   0.000  -0.002   0.000  -0.000   0.000   0.000   0.000
 -0.000   0.000  -0.003   0.000  -0.000   0.000  -0.000   0.000   0.000   0.000  -0.000   0.000  -0.002   0.000  -0.000   0.000
 total augmentation occupancy for first ion, spin component:           1
  4.202   0.000   0.000  -0.000   0.000  -2.047   0.000   0.000  -0.000  -0.000   0.000   0.000   0.000  -0.525  -0.000   0.000
  0.000   4.202   0.000  -0.000  -0.000   0.000  -2.047   0.000   0.000   0.000   0.000   0.000  -0.000   0.000  -0.525   0.000
  0.000  -0.000   2.709   0.000   0.000   0.000   0.000  -0.613   0.000   0.000   0.000   0.000  -0.000   0.000  -0.000   0.000
  0.000  -0.000   0.000   4.202   0.000  -0.000   0.000   0.000  -2.047   0.000   0.000   0.000  -0.525  -0.000  -0.000   0.078
  0.000   0.000   0.000   0.000   2.709   0.000  -0.000   0.000  -0.000  -0.613   0.000   0.000   0.000   0.000   0.000  -0.000
 -2.047   0.000   0.000   0.000  -0.000   1.886   0.000   0.000   0.000  -0.000   0.000  -0.000  -0.000   0.501   0.000  -0.000
  0.000  -2.047  -0.000  -0.000  -0.000   0.000   1.886   0.000   0.000  -0.000  -0.000  -0.000   0.000   0.000   0.501  -0.000
  0.000   0.000  -0.613   0.000   0.000   0.000   0.000   0.508   0.000   0.000  -0.000  -0.000  -0.000  -0.000   0.000   0.000
  0.000  -0.000   0.000  -2.047  -0.000  -0.000   0.000   0.000   1.886   0.000   0.000   0.000   0.501  -0.000   0.000  -0.088
 -0.000   0.000   0.000   0.000  -0.613   0.000  -0.000   0.000  -0.000   0.508   0.000   0.000  -0.000   0.000  -0.000   0.000
  0.000   0.000   0.000   0.000   0.000  -0.000  -0.000  -0.000   0.000   0.000   3.014  -0.789   0.000   0.000   0.000   0.000
  0.000  -0.000   0.000   0.000   0.000  -0.000  -0.000  -0.000   0.000   0.000  -0.789   0.245   0.000   0.000   0.000  -0.000
  0.000  -0.000   0.000  -0.525   0.000  -0.000  -0.000  -0.000   0.501  -0.000   0.000   0.000   0.213  -0.000   0.000  -0.038
 -0.525   0.000   0.000  -0.000  -0.000   0.501   0.000  -0.000   0.000   0.000   0.000  -0.000   0.000   0.213   0.000   0.000
 -0.000  -0.525   0.000   0.000  -0.000   0.000   0.501  -0.000  -0.000  -0.000   0.000   0.000   0.000   0.000   0.213   0.000
 -0.000  -0.000  -0.000   0.078   0.000  -0.000   0.000   0.000  -0.088   0.000   0.000   0.000  -0.038  -0.000   0.000   0.008
  0.078  -0.000   0.000   0.000   0.000  -0.088   0.000   0.000   0.000  -0.000   0.000   0.000  -0.000  -0.038   0.000  -0.000
  0.000   0.078  -0.000  -0.000   0.000   0.000  -0.088  -0.000   0.000   0.000  -0.000  -0.000   0.000   0.000  -0.038   0.000


------------------------ aborting loop because EDIFF is reached ----------------------------------------


    CHARGE:  cpu time    0.03: real time    0.05
    FORLOC:  cpu time    0.00: real time    0.02
    FORNL :  cpu time    0.03: real time    0.07
    STRESS:  cpu time    0.10: real time    0.20
    FORCOR:  cpu time    0.05: real time    0.11
    FORHAR:  cpu time    0.02: real time    0.03
    MIXING:  cpu time    0.00: real time    0.01
    OFIELD:  cpu time    0.00: real time    0.00

  FORCE on cell =-STRESS in cart. coord.  units (eV):
  Direction    XX          YY          ZZ          XY          YZ          ZX
  --------------------------------------------------------------------------------------
  Alpha Z    50.23496    50.23496    50.23496
  Ewald    -348.42238  -348.42238  -348.42238    -0.00000     0.00000     0.00000
  Hartree   167.79011   167.79011   167.79011     0.00000     0.00000     0.00000
  E(xc)     -87.40295   -87.40295   -87.40295     0.00004     0.00004     0.00004
  Local     -17.57524   -17.57524   -17.57524     0.00025     0.00025     0.00025
  n-local    29.41343    26.00925    26.19183    -1.98732     0.17699     1.17896
  augment     6.37544     6.37544     6.37544    -0.00020    -0.00020    -0.00020
  Kinetic   203.80760   201.74952   202.50769    -1.64959     0.15541     0.94409
  Fock        0.00000     0.00000     0.00000     0.00000     0.00000     0.00000
  -------------------------------------------------------------------------------------
  Total       0.89305     0.89305     0.89305    -0.00000     0.00000     0.00000
  in kB      21.03408    21.03408    21.03408    -0.00000     0.00000     0.00000
  external pressure =       21.03 kB  Pullay stress =        0.00 kB


 VOLUME and BASIS-vectors are now :
 -----------------------------------------------------------------------------
  energy-cutoff  :      275.00
  volume of cell :       68.02
      direct lattice vectors                 reciprocal lattice vectors
     3.240000000  3.240000000  0.000000000     0.154320988  0.154320988 -0.154320988
     0.000000000  3.240000000  3.240000000    -0.154320988  0.154320988  0.154320988
     3.240000000  0.000000000  3.240000000     0.154320988 -0.154320988  0.154320988

  length of vectors
     4.582051942  4.582051942  4.582051942     0.267291791  0.267291791  0.267291791


 FORCES acting on ions
    electron-ion (+dipol)            ewald-force                    non-local-force                 convergence-correction
 -----------------------------------------------------------------------------------------------
   -.187E-04 -.187E-04 -.187E-04   0.677E-14 0.433E-14 0.576E-14   0.243E-16 0.113E-16 0.104E-16   0.555E-07 0.555E-07 0.555E-07
   0.584E-05 0.584E-05 0.584E-05   -.686E-14 -.397E-14 -.590E-14   -.694E-17 0.104E-16 0.694E-17   0.700E-07 0.700E-07 0.700E-07
 -----------------------------------------------------------------------------------------------
   -.129E-04 -.129E-04 -.129E-04   -.953E-16 0.356E-15 -.137E-15   0.173E-16 0.217E-16 0.173E-16   0.125E-06 0.125E-06 0.125E-06
 
 
 POSITION                                       TOTAL-FORCE (eV/Angst)
 -----------------------------------------------------------------------------------
      0.00000      0.00000      0.00000         0.000000     -0.000000     -0.000000
      1.62000      1.62000      1.62000        -0.000000      0.000000      0.000000
 -----------------------------------------------------------------------------------
    total drift:                               -0.000013     -0.000013     -0.000013


--------------------------------------------------------------------------------------------------------



  FREE ENERGIE OF THE ION-ELECTRON SYSTEM (eV)
  ---------------------------------------------------
  free  energy   TOTEN  =        -4.76812432 eV

  energy  without entropy=       -4.76812432  energy(sigma->0) =       -4.76812432
 


--------------------------------------------------------------------------------------------------------


    POTLOK:  cpu time    0.05: real time    0.11


--------------------------------------------------------------------------------------------------------


 Quasi-Newton relaxation of ions (Broydens 2nd method)
  g(Force)  = 0.592E-44   g(Stress)= 0.577E-01

 Reset! Starting new Quasi-Newton update for ions 


--------------------------------------------------------------------------------------------------------


    WAVPRE:  cpu time    0.02: real time    0.03
    FEWALD:  cpu time    0.00: real time    0.00
    GENKIN:  cpu time    0.00: real time    0.00
    ORTHCH:  cpu time    0.00: real time    0.00
     LOOP+:  cpu time    3.32: real time    6.66


----------------------------------------- Iteration    2(   1)  ---------------------------------------


    POTLOK:  cpu time    0.05: real time    0.12
    SETDIJ:  cpu time    0.00: real time    0.00
     EDDAV:  cpu time    0.24: real time    0.48
 BZINTS: Fermi energy:  1.330046; 18.000000 electrons
         Band energy:-101.988249;  BLOECHL correction:  0.000000
       DOS:  cpu time    0.00: real time    0.00
    CHARGE:  cpu time    0.03: real time    0.05
    MIXING:  cpu time    0.00: real time    0.00
    --------------------------------------------
      LOOP:  cpu time    0.32: real time    0.65

 eigenvalue-minimisations  :   285
 total energy-change (2. order) :-0.6456940E+00  (-0.1381794E+01)
 number of electron      18.0000096 magnetization 
 augmentation part        4.7300317 magnetization 

 Broyden mixing:
  rms(total) = 0.60967E+00    rms(broyden)= 0.60959E+00
  rms(prec ) = 0.10773E+01
  weight for this iteration     100.00

 Free energy of the ion-electron system (eV)
  ---------------------------------------------------
  alpha Z        PSCENC =        47.12353116
  Ewald energy   TEWEN  =     -1023.22476936
  -Hartree energ DENC   =      -492.72513750
  -exchange      EXHF   =         0.00000000
  -V(xc)+E(xc)   XCENC  =       -23.47536943
  PAW double counting   =      1747.48321048    -1674.98354879
  entropy T*S    EENTRO =         0.00000000
  eigenvalues    EBANDS =      -101.98824900
  atomic energy  EATOM  =      1516.37656012
  ---------------------------------------------------
  free energy    TOTEN  =        -5.41377232 eV

  energy without entropy =       -5.41377232  energy(sigma->0) =       -5.41377232


--------------------------------------------------------------------------------------------------------




----------------------------------------- Iteration    2(   2)  ---------------------------------------


    POTLOK:  cpu time    0.05: real time    0.10
    SETDIJ:  cpu time    0.00: real time    0.00
     EDDAV:  cpu time    0.23: real time    0.46
 BZINTS: Fermi energy:  1.515555; 18.000000 electrons
         Band energy: -86.878135;  BLOECHL correction:  0.000000
       DOS:  cpu time    0.00: real time    0.00
    CHARGE:  cpu time    0.03: real time    0.05
    MIXING:  cpu time    0.00: real time    0.01
    --------------------------------------------
      LOOP:  cpu time    0.31: real time    0.63

 eigenvalue-minimisations  :   265
 total energy-change (2. order) : 0.5537979E+00  (-0.1239881E+00)
 number of electron      18.0000094 magnetization 
 augmentation part        4.6204988 magnetization 

 Broyden mixing:
  rms(total) = 0.21718E+00    rms(broyden)= 0.21717E+00
  rms(prec ) = 0.38381E+00
  weight for this iteration     100.00

 eigenvalues of (default mixing * dielectric matrix)
  average eigenvalue GAMMA=   0.8728
  0.8728

 Free energy of the ion-electron system (eV)
  ---------------------------------------------------
  alpha Z        PSCENC =        47.12353116
  Ewald energy   TEWEN  =     -1023.22476936
  -Hartree energ DENC   =      -507.46290359
  -exchange      EXHF   =         0.00000000
  -V(xc)+E(xc)   XCENC  =       -23.01349917
  PAW double counting   =      1720.74390500    -1648.52466372
  entropy T*S    EENTRO =         0.00000000
  eigenvalues    EBANDS =       -86.87813484
  atomic energy  EATOM  =      1516.37656012
  ---------------------------------------------------
  free energy    TOTEN  =        -4.85997440 eV

  energy without entropy =       -4.85997440  energy(sigma->0) =       -4.85997440


--------------------------------------------------------------------------------------------------------




----------------------------------------- Iteration    2(   3)  ---------------------------------------


    POTLOK:  cpu time    0.05: real time    0.09
    SETDIJ:  cpu time    0.00: real time    0.02
     EDDAV:  cpu time    0.24: real time    0.47
 BZINTS: Fermi energy:  1.660524; 18.000000 electrons
         Band energy: -81.537163;  BLOECHL correction:  0.000000
       DOS:  cpu time    0.00: real time    0.00
    CHARGE:  cpu time    0.03: real time    0.06
    MIXING:  cpu time    0.00: real time    0.00
    --------------------------------------------
      LOOP:  cpu time    0.32: real time    0.64

 eigenvalue-minimisations  :   280
 total energy-change (2. order) : 0.7413084E-01  (-0.1782897E-01)
 number of electron      18.0000093 magnetization 
 augmentation part        4.5839540 magnetization 

 Broyden mixing:
  rms(total) = 0.18996E+00    rms(broyden)= 0.18996E+00
  rms(prec ) = 0.20951E+00
  weight for this iteration     100.00

 eigenvalues of (default mixing * dielectric matrix)
  average eigenvalue GAMMA=   1.5836
  1.5836  1.5836

 Free energy of the ion-electron system (eV)
  ---------------------------------------------------
  alpha Z        PSCENC =        47.12353116
  Ewald energy   TEWEN  =     -1023.22476936
  -Hartree energ DENC   =      -513.16590899
  -exchange      EXHF   =         0.00000000
  -V(xc)+E(xc)   XCENC  =       -22.83952545
  PAW double counting   =      1702.03174824    -1629.55031605
  entropy T*S    EENTRO =         0.00000000
  eigenvalues    EBANDS =       -81.53716324
  atomic energy  EATOM  =      1516.37656012
  ---------------------------------------------------
  free energy    TOTEN  =        -4.78584356 eV

  energy without entropy =       -4.78584356  energy(sigma->0) =       -4.78584356


--------------------------------------------------------------------------------------------------------




----------------------------------------- Iteration    2(   4)  ---------------------------------------


    POTLOK:  cpu time    0.05: real time    0.09
    SETDIJ:  cpu time    0.01: real time    0.02
     EDDAV:  cpu time    0.28: real time    0.56
 BZINTS: Fermi energy:  1.698383; 18.000000 electrons
         Band energy: -80.521118;  BLOECHL correction:  0.000000
       DOS:  cpu time    0.00: real time    0.00
    CHARGE:  cpu time    0.04: real time    0.09
    MIXING:  cpu time    0.00: real time    0.00
    --------------------------------------------
      LOOP:  cpu time    0.38: real time    0.75

 eigenvalue-minimisations  :   260
 total energy-change (2. order) : 0.1058207E-01  (-0.1654006E-02)
 number of electron      18.0000093 magnetization 
 augmentation part        4.5869097 magnetization 

 Broyden mixing:
  rms(total) = 0.34449E-01    rms(broyden)= 0.34449E-01
  rms(prec ) = 0.47342E-01
  weight for this iteration     100.00

 eigenvalues of (default mixing * dielectric matrix)
  average eigenvalue GAMMA=   1.4959
  2.1636  0.9411  1.3830

 Free energy of the ion-electron system (eV)
  ---------------------------------------------------
  alpha Z        PSCENC =        47.12353116
  Ewald energy   TEWEN  =     -1023.22476936
  -Hartree energ DENC   =      -514.61324908
  -exchange      EXHF   =         0.00000000
  -V(xc)+E(xc)   XCENC  =       -22.81303739
  PAW double counting   =      1696.40779820    -1623.51097719
  entropy T*S    EENTRO =         0.00000000
  eigenvalues    EBANDS =       -80.52111794
  atomic energy  EATOM  =      1516.37656012
  ---------------------------------------------------
  free energy    TOTEN  =        -4.77526149 eV

  energy without entropy =       -4.77526149  energy(sigma->0) =       -4.77526149


--------------------------------------------------------------------------------------------------------




----------------------------------------- Iteration    2(   5)  ---------------------------------------


    POTLOK:  cpu time    0.07: real time    0.14
    SETDIJ:  cpu time    0.01: real time    0.02
     EDDAV:  cpu time    0.38: real time    0.77
 BZINTS: Fermi energy:  1.700904; 18.000000 electrons
         Band energy: -79.943923;  BLOECHL correction:  0.000000
       DOS:  cpu time    0.00: real time    0.00
    CHARGE:  cpu time    0.04: real time    0.09
    MIXING:  cpu time    0.00: real time    0.00
    --------------------------------------------
      LOOP:  cpu time    0.51: real time    1.02

 eigenvalue-minimisations  :   290
 total energy-change (2. order) : 0.6089447E-03  (-0.1694594E-03)
 number of electron      18.0000093 magnetization 
 augmentation part        4.5839541 magnetization 

 Broyden mixing:
  rms(total) = 0.21558E-01    rms(broyden)= 0.21558E-01
  rms(prec ) = 0.25864E-01
  weight for this iteration     100.00

 eigenvalues of (default mixing * dielectric matrix)
  average eigenvalue GAMMA=   1.1859
  2.1520  1.4043  0.9255  0.2618

 Free energy of the ion-electron system (eV)
  ---------------------------------------------------
  alpha Z        PSCENC =        47.12353116
  Ewald energy   TEWEN  =     -1023.22476936
  -Hartree energ DENC   =      -515.23169301
  -exchange      EXHF   =         0.00000000
  -V(xc)+E(xc)   XCENC  =       -22.80017884
  PAW double counting   =      1693.76199964    -1620.83617888
  entropy T*S    EENTRO =         0.00000000
  eigenvalues    EBANDS =       -79.94392337
  atomic energy  EATOM  =      1516.37656012
  ---------------------------------------------------
  free energy    TOTEN  =        -4.77465254 eV

  energy without entropy =       -4.77465254  energy(sigma->0) =       -4.77465254


--------------------------------------------------------------------------------------------------------




----------------------------------------- Iteration    2(   6)  ---------------------------------------


    POTLOK:  cpu time    0.07: real time    0.14
    SETDIJ:  cpu time    0.01: real time    0.02
     EDDAV:  cpu time    0.35: real time    0.71
 BZINTS: Fermi energy:  1.697846; 18.000000 electrons
         Band energy: -79.766047;  BLOECHL correction:  0.000000
       DOS:  cpu time    0.00: real time    0.00
    --------------------------------------------
      LOOP:  cpu time    0.43: real time    0.86

 eigenvalue-minimisations  :   265
 total energy-change (2. order) : 0.3586481E-04  (-0.3742842E-04)
 number of electron      18.0000093 magnetization 
 augmentation part        4.5839541 magnetization 

 Free energy of the ion-electron system (eV)
  ---------------------------------------------------
  alpha Z        PSCENC =        47.12353116
  Ewald energy   TEWEN  =     -1023.22476936
  -Hartree energ DENC   =      -515.40807039
  -exchange      EXHF   =         0.00000000
  -V(xc)+E(xc)   XCENC  =       -22.79827161
  PAW double counting   =      1694.21611458    -1621.29366409
  entropy T*S    EENTRO =         0.00000000
  eigenvalues    EBANDS =       -79.76604708
  atomic energy  EATOM  =      1516.37656012
  ---------------------------------------------------
  free energy    TOTEN  =        -4.77461668 eV

  energy without entropy =       -4.77461668  energy(sigma->0) =       -4.77461668


--------------------------------------------------------------------------------------------------------




 average (electrostatic) potential at core
  the test charge radii are     1.0698  1.1897
  (the norm of the test charge is              1.0000)
       1 -39.5196       2 -91.7911
 
 
 
 E-fermi :   1.6978     XC(G=0):  -8.3120     alpha+bet : -6.9716


 k-point     1 :       0.1250    0.1250    0.1250
  band No.  band energies     occupation 
      1      -8.9912      2.00000
      2      -6.3063      2.00000
      3      -6.3063      2.00000
      4      -6.2718      2.00000
      5      -6.0999      2.00000
      6      -6.0999      2.00000
      7       0.6057      2.00000
      8       1.6713      2.00000
      9       1.6713      2.00000
     10       3.2667      0.00000
     11       6.3826      0.00000
     12       6.6237      0.00000
     13       6.6237      0.00000

 k-point     2 :       0.3750    0.1250    0.1250
  band No.  band energies     occupation 
      1      -8.7984      2.00000
      2      -6.2743      2.00000
      3      -6.2642      2.00000
      4      -6.1049      2.00000
      5      -6.1040      2.00000
      6      -6.0224      2.00000
      7      -1.2200      2.00000
      8       0.6547      2.00000
      9       1.3706      2.00000
     10       4.2235      0.00000
     11       6.8013      0.00000
     12       7.0575      0.00000
     13       7.3644      0.00000

 k-point     3 :      -0.3750    0.1250    0.1250
  band No.  band energies     occupation 
      1      -8.6888      2.00000
      2      -6.2554      2.00000
      3      -6.2508      2.00000
      4      -6.1030      2.00000
      5      -6.0908      2.00000
      6      -5.7814      2.00000
      7      -2.1781      2.00000
      8       0.5678      2.00000
      9       0.9343      2.00000
     10       4.1780      0.00000
     11       6.6368      0.00000
     12       7.4020      0.00000
     13       8.5865      0.00000

 k-point     4 :      -0.1250    0.1250    0.1250
  band No.  band energies     occupation 
      1      -8.8779      2.00000
      2      -6.2811      2.00000
      3      -6.2740      2.00000
      4      -6.1737      2.00000
      5      -6.0988      2.00000
      6      -6.0923      2.00000
      7      -0.4730      2.00000
      8       1.1702      2.00000
      9       1.1915      2.00000
     10       4.1895      0.00000
     11       5.8355      0.00000
     12       7.3398      0.00000
     13       7.4074      0.00000

 k-point     5 :       0.3750    0.3750    0.1250
  band No.  band energies     occupation 
      1      -8.7216      2.00000
      2      -6.2368      2.00000
      3      -6.2299      2.00000
      4      -6.1488      2.00000
      5      -6.0831      2.00000
      6      -5.9260      2.00000
      7      -1.4571      2.00000
      8       0.4197      2.00000
      9       0.5993      2.00000
     10       4.7126      0.00000
     11       5.3763      0.00000
     12       7.9214      0.00000
     13       8.5758      0.00000

 k-point     6 :      -0.3750    0.3750    0.1250
  band No.  band energies     occupation 
      1      -8.6167      2.00000
      2      -6.2219      2.00000
      3      -6.2102      2.00000
      4      -6.1303      2.00000
      5      -6.0920      2.00000
      6      -5.6537      2.00000
      7      -2.0845      2.00000
      8      -0.3594      2.00000
      9       0.2408      2.00000
     10       5.2152      0.00000
     11       6.2561      0.00000
     12       7.6528      0.00000
     13       9.0174      0.00000

 k-point     7 :      -0.1250    0.3750    0.1250
  band No.  band energies     occupation 
      1      -8.6899      2.00000
      2      -6.2455      2.00000
      3      -6.2371      2.00000
      4      -6.1194      2.00000
      5      -6.0914      2.00000
      6      -5.8213      2.00000
      7      -1.8185      2.00000
      8       0.0518      2.00000
      9       0.8016      2.00000
     10       4.8840      0.00000
     11       6.3693      0.00000
     12       7.2338      0.00000
     13       8.4083      0.00000

 k-point     8 :      -0.3750   -0.3750    0.1250
  band No.  band energies     occupation 
      1      -8.6160      2.00000
      2      -6.2047      2.00000
      3      -6.1938      2.00000
      4      -6.1595      2.00000
      5      -6.0793      2.00000
      6      -5.6963      2.00000
      7      -2.0980      2.00000
      8      -0.0609      2.00000
      9       0.2538      2.00000
     10       4.5769      0.00000
     11       5.1022      0.00000
     12       9.1617      0.00000
     13       9.7694      0.00000

 k-point     9 :       0.3750    0.3750    0.3750
  band No.  band energies     occupation 
      1      -8.7517      2.00000
      2      -6.2677      2.00000
      3      -6.2677      2.00000
      4      -6.0955      2.00000
      5      -6.0955      2.00000
      6      -5.9208      2.00000
      7      -1.8533      2.00000
      8       1.1910      2.00000
      9       1.1910      2.00000
     10       3.5987      0.00000
     11       7.0220      0.00000
     12       7.0220      0.00000
     13       8.2817      0.00000

 k-point    10 :      -0.3750    0.3750    0.3750
  band No.  band energies     occupation 
      1      -8.6465      2.00000
      2      -6.2375      2.00000
      3      -6.2278      2.00000
      4      -6.1135      2.00000
      5      -6.0964      2.00000
      6      -5.7050      2.00000
      7      -2.0652      2.00000
      8      -0.3307      2.00000
      9       0.7549      2.00000
     10       4.7970      0.00000
     11       6.7382      0.00000
     12       8.0931      0.00000
     13       8.3752      0.00000


--------------------------------------------------------------------------------------------------------


 soft charge-density along one line, spin component           1
         0         1         2         3         4         5         6         7         8         9
x    13.4161    0.0000    3.2405   -3.5443    0.1055   -0.1679   -0.3036    0.0001   -0.2296    0.0123
x    -0.0310    0.0071    0.0271   -0.0003    0.0151   -0.0003    0.0036    0.0000    0.0003    0.0000
x     0.0000    0.0000
y    13.4161    0.0000    3.2405   -3.5443    0.1055   -0.1679   -0.3036    0.0001   -0.2296    0.0123
y    -0.0310    0.0071    0.0271   -0.0003    0.0151   -0.0003    0.0036    0.0000    0.0003    0.0000
y     0.0000    0.0000
z    13.4161    0.0000    3.2405   -3.5443    0.1055   -0.1679   -0.3036    0.0001   -0.2296    0.0123
z    -0.0310    0.0071    0.0271   -0.0003    0.0151   -0.0003    0.0036    0.0000    0.0003    0.0000
z     0.0000    0.0000
 total charge-density along one line
x    18.0000    0.0000    8.3165   -2.5417    4.1747   -0.1671    1.4198   -0.2576    0.2668    0.0006
x     0.0239   -0.0002   -0.0011   -0.0010    0.0124   -0.0020    0.0089    0.0002   -0.0000   -0.0002
x    -0.0014   -0.0000    0.0004   -0.0001    0.0005    0.0000   -0.0003    0.0000   -0.0001   -0.0000
x     0.0002    0.0000   -0.0000    0.0000   -0.0001    0.0000    0.0000   -0.0000    0.0000    0.0000
x    -0.0001   -0.0000
y    18.0000    0.0000    8.3165   -2.5417    4.1747   -0.1671    1.4198   -0.2576    0.2668    0.0006
y     0.0239   -0.0002   -0.0011   -0.0010    0.0124   -0.0020    0.0089    0.0002   -0.0000   -0.0002
y    -0.0014   -0.0000    0.0004   -0.0001    0.0005    0.0000   -0.0003    0.0000   -0.0001   -0.0000
[...]
    SETDIJ:  cpu time    0.01: real time    0.02
     EDDAV:  cpu time    0.34: real time    0.66
 BZINTS: Fermi energy:  1.913236; 18.000000 electrons
         Band energy: -76.755575;  BLOECHL correction:  0.000000
       DOS:  cpu time    0.00: real time    0.00
    --------------------------------------------
      LOOP:  cpu time    0.42: real time    0.83

 eigenvalue-minimisations  :   255
 total energy-change (2. order) : 0.5574577E-04  (-0.2766298E-04)
 number of electron      18.0000108 magnetization 
 augmentation part        4.5790135 magnetization 

 Free energy of the ion-electron system (eV)
  ---------------------------------------------------
  alpha Z        PSCENC =        48.37951881
  Ewald energy   TEWEN  =     -1032.23587943
  -Hartree energ DENC   =      -510.58772387
  -exchange      EXHF   =         0.00000000
  -V(xc)+E(xc)   XCENC  =       -22.69751497
  PAW double counting   =      1713.27010734    -1640.53337139
  entropy T*S    EENTRO =         0.00000000
  eigenvalues    EBANDS =       -76.75557523
  atomic energy  EATOM  =      1516.37656012
  ---------------------------------------------------
  free energy    TOTEN  =        -4.78387862 eV

  energy without entropy =       -4.78387862  energy(sigma->0) =       -4.78387862


--------------------------------------------------------------------------------------------------------




 average (electrostatic) potential at core
  the test charge radii are     1.0698  1.1897
  (the norm of the test charge is              1.0000)
       1 -39.3133       2 -91.6144
 
 
 
 E-fermi :   1.9132     XC(G=0):  -8.4181     alpha+bet : -7.1574


 k-point     1 :       0.1250    0.1250    0.1250
  band No.  band energies     occupation 
      1      -8.8987      2.00000
      2      -6.1329      2.00000
      3      -6.1329      2.00000
      4      -6.0984      2.00000
      5      -5.9091      2.00000
      6      -5.9091      2.00000
      7       0.8175      2.00000
      8       1.8904      2.00000
      9       1.8904      2.00000
     10       3.5644      0.00000
     11       6.6105      0.00000
     12       6.8431      0.00000
     13       6.8431      0.00000

 k-point     2 :       0.3750    0.1250    0.1250
  band No.  band energies     occupation 
      1      -8.6918      2.00000
      2      -6.0982      2.00000
      3      -6.0878      2.00000
      4      -5.9151      2.00000
      5      -5.9147      2.00000
      6      -5.8342      2.00000
      7      -1.0726      2.00000
      8       0.8234      2.00000
      9       1.5741      2.00000
     10       4.5109      0.00000
     11       7.0462      0.00000
     12       7.2859      0.00000
     13       7.6229      0.00000

 k-point     3 :      -0.3750    0.1250    0.1250
  band No.  band energies     occupation 
      1      -8.5738      2.00000
      2      -6.0781      2.00000
      3      -6.0725      2.00000
      4      -5.9128      2.00000
      5      -5.8990      2.00000
      6      -5.5727      2.00000
      7      -2.0836      2.00000
      8       0.7374      2.00000
      9       1.1152      2.00000
     10       4.4501      0.00000
     11       6.8511      0.00000
     12       7.6361      0.00000
     13       8.8955      0.00000

 k-point     4 :      -0.1250    0.1250    0.1250
  band No.  band energies     occupation 
      1      -8.7773      2.00000
      2      -6.1061      2.00000
      3      -6.0987      2.00000
      4      -5.9966      2.00000
      5      -5.9091      2.00000
      6      -5.9009      2.00000
      7      -0.2918      2.00000
      8       1.3616      2.00000
      9       1.3866      2.00000
     10       4.4928      0.00000
     11       6.0511      0.00000
     12       7.5849      0.00000
     13       7.6554      0.00000

 k-point     5 :       0.3750    0.3750    0.1250
  band No.  band energies     occupation 
      1      -8.6092      2.00000
      2      -6.0576      2.00000
      3      -6.0494      2.00000
      4      -5.9650      2.00000
      5      -5.8908      2.00000
      6      -5.7325      2.00000
      7      -1.3103      2.00000
      8       0.5767      2.00000
      9       0.7632      2.00000
     10       4.9669      0.00000
     11       5.6069      0.00000
     12       8.1763      0.00000
     13       8.8562      0.00000

 k-point     6 :      -0.3750    0.3750    0.1250
  band No.  band energies     occupation 
      1      -8.4962      2.00000
      2      -6.0411      2.00000
      3      -6.0283      2.00000
      4      -5.9423      2.00000
      5      -5.9004      2.00000
      6      -5.4350      2.00000
      7      -1.9757      2.00000
      8      -0.2360      2.00000
      9       0.3873      2.00000
     10       5.4770      0.00000
     11       6.5132      0.00000
     12       7.9044      0.00000
     13       9.2932      0.00000

 k-point     7 :      -0.1250    0.3750    0.1250
  band No.  band energies     occupation 
      1      -8.5750      2.00000
      2      -6.0672      2.00000
      3      -6.0581      2.00000
      4      -5.9314      2.00000
      5      -5.8997      2.00000
      6      -5.6187      2.00000
      7      -1.6974      2.00000
      8       0.1956      2.00000
      9       0.9757      2.00000
     10       5.1769      0.00000
     11       6.5948      0.00000
     12       7.4734      0.00000
     13       8.6856      0.00000

 k-point     8 :      -0.3750   -0.3750    0.1250
  band No.  band energies     occupation 
      1      -8.4955      2.00000
      2      -6.0230      2.00000
      3      -6.0095      2.00000
      4      -5.9752      2.00000
      5      -5.8864      2.00000
      6      -5.4834      2.00000
      7      -1.9849      2.00000
      8       0.0730      2.00000
      9       0.4019      2.00000
     10       4.7938      0.00000
     11       5.3263      0.00000
     12       9.4754      0.00000
     13      10.0824      0.00000

 k-point     9 :       0.3750    0.3750    0.3750
  band No.  band energies     occupation 
      1      -8.6415      2.00000
      2      -6.0915      2.00000
      3      -6.0915      2.00000
      4      -5.9040      2.00000
      5      -5.9040      2.00000
      6      -5.7254      2.00000
      7      -1.7408      2.00000
      8       1.3850      2.00000
      9       1.3850      2.00000
     10       3.8582      0.00000
     11       7.2458      0.00000
     12       7.2458      0.00000
     13       8.5945      0.00000

 k-point    10 :      -0.3750    0.3750    0.3750
  band No.  band energies     occupation 
      1      -8.5283      2.00000
      2      -6.0588      2.00000
      3      -6.0475      2.00000
      4      -5.9240      2.00000
      5      -5.9054      2.00000
      6      -5.4908      2.00000
      7      -1.9598      2.00000
      8      -0.2028      2.00000
      9       0.9269      2.00000
     10       5.0564      0.00000
     11       6.9951      0.00000
     12       8.3491      0.00000
     13       8.6805      0.00000


--------------------------------------------------------------------------------------------------------


 soft charge-density along one line, spin component           1
         0         1         2         3         4         5         6         7         8         9
x    13.4210    0.0000    3.2086   -3.5057    0.0979   -0.1647   -0.3067   -0.0012   -0.2208    0.0121
x    -0.0260    0.0068    0.0269   -0.0003    0.0141   -0.0003    0.0032    0.0000    0.0003    0.0000
x     0.0000    0.0000
y    13.4210    0.0000    3.2086   -3.5057    0.0979   -0.1647   -0.3067   -0.0012   -0.2208    0.0121
y    -0.0260    0.0068    0.0269   -0.0003    0.0141   -0.0003    0.0032    0.0000    0.0003    0.0000
y     0.0000    0.0000
z    13.4210    0.0000    3.2086   -3.5057    0.0979   -0.1647   -0.3067   -0.0012   -0.2208    0.0121
z    -0.0260    0.0068    0.0269   -0.0003    0.0141   -0.0003    0.0032    0.0000    0.0003    0.0000
z     0.0000    0.0000
 total charge-density along one line
x    18.0000   -0.0000    8.2771   -2.5029    4.1244   -0.1629    1.3772   -0.2507    0.2522    0.0001
x     0.0196   -0.0012   -0.0005   -0.0011    0.0126   -0.0019    0.0084    0.0002   -0.0005   -0.0002
x    -0.0012   -0.0000    0.0005   -0.0000    0.0004    0.0000   -0.0003    0.0000   -0.0000   -0.0000
x     0.0002    0.0000   -0.0000    0.0000   -0.0001    0.0000    0.0000   -0.0000    0.0000    0.0000
x    -0.0001   -0.0000
y    18.0000   -0.0000    8.2771   -2.5029    4.1244   -0.1629    1.3772   -0.2507    0.2522    0.0001
y     0.0196   -0.0012   -0.0005   -0.0011    0.0126   -0.0019    0.0084    0.0002   -0.0005   -0.0002
y    -0.0012   -0.0000    0.0005   -0.0000    0.0004    0.0000   -0.0003    0.0000   -0.0000   -0.0000
y     0.0002    0.0000   -0.0000    0.0000   -0.0001    0.0000    0.0000   -0.0000    0.0000    0.0000
y    -0.0001   -0.0000
z    18.0000   -0.0000    8.2771   -2.5029    4.1244   -0.1629    1.3772   -0.2507    0.2522    0.0001
z     0.0196   -0.0012   -0.0005   -0.0011    0.0126   -0.0019    0.0084    0.0002   -0.0005   -0.0002
z    -0.0012   -0.0000    0.0005   -0.0000    0.0004    0.0000   -0.0003    0.0000   -0.0000   -0.0000
z     0.0002    0.0000   -0.0000    0.0000   -0.0001    0.0000    0.0000   -0.0000    0.0000    0.0000
z    -0.0001   -0.0000
 
 pseudopotential strength for first ion, spin component:           1
-17.995   0.000  -0.000   0.000   0.000   0.000  -0.000   0.000  -0.000   0.000 -18.033   0.000  -0.000   0.000   0.000   0.000
 -0.000   0.000 -17.995   0.000  -0.000   0.000  -0.000   0.000   0.000   0.000  -0.000   0.000 -18.033   0.000  -0.000   0.000
  0.000   0.000  -0.000   0.000 -17.996   0.000  -0.000   0.000  -0.000   0.000   0.000   0.000  -0.000   0.000 -18.034   0.000
 -0.000   0.000  -0.000   0.000  -0.000   0.000 -17.995   0.000  -0.000   0.000  -0.000   0.000  -0.000   0.000  -0.000   0.000
 -0.000   0.000   0.000   0.000  -0.000   0.000  -0.000   0.000 -17.996   0.000  -0.000   0.000   0.000   0.000  -0.000   0.000
-18.033   0.000  -0.000   0.000   0.000   0.000  -0.000   0.000  -0.000   0.000 -18.051   0.000  -0.000   0.000   0.000   0.000
 -0.000   0.000 -18.033   0.000  -0.000   0.000  -0.000   0.000   0.000   0.000  -0.000   0.000 -18.051   0.000  -0.000   0.000
  0.000   0.000  -0.000   0.000 -18.034   0.000  -0.000   0.000  -0.000   0.000   0.000   0.000  -0.000   0.000 -18.052   0.000
 -0.000   0.000  -0.000   0.000  -0.000   0.000 -18.033   0.000  -0.000   0.000  -0.000   0.000  -0.000   0.000  -0.000   0.000
 -0.000   0.000   0.000   0.000  -0.000   0.000  -0.000   0.000 -18.034   0.000  -0.000   0.000   0.000   0.000  -0.000   0.000
  0.000   0.000   0.000   0.000   0.000   0.000   0.000   0.000  -0.000   0.000   0.000   0.000   0.000   0.000   0.000   0.000
  0.000   0.000   0.000   0.000   0.000   0.000   0.000   0.000  -0.000   0.000   0.000   0.000   0.000   0.000   0.000   0.000
 -0.000   0.000  -0.000   0.000  -0.000   0.000  -0.003   0.000  -0.000   0.000  -0.000   0.000  -0.000   0.000  -0.000   0.000
 -0.003   0.000  -0.000   0.000   0.000   0.000  -0.000   0.000  -0.000   0.000  -0.003   0.000  -0.000   0.000   0.000   0.000
 -0.000   0.000  -0.003   0.000  -0.000   0.000  -0.000   0.000   0.000   0.000  -0.000   0.000  -0.003   0.000  -0.000   0.000
 -0.000   0.000  -0.000   0.000  -0.000   0.000  -0.003   0.000  -0.000   0.000  -0.000   0.000  -0.000   0.000  -0.000   0.000
 -0.003   0.000  -0.000   0.000   0.000   0.000  -0.000   0.000  -0.000   0.000  -0.003   0.000  -0.000   0.000   0.000   0.000
 -0.000   0.000  -0.003   0.000  -0.000   0.000  -0.000   0.000   0.000   0.000  -0.000   0.000  -0.003   0.000  -0.000   0.000
 total augmentation occupancy for first ion, spin component:           1
  3.951  -0.000   0.000  -0.000   0.000  -1.825  -0.000   0.000  -0.000   0.000   0.000   0.000   0.000  -0.481   0.000  -0.000
  0.000   3.951   0.000  -0.000  -0.000   0.000  -1.825  -0.000   0.000   0.000   0.000  -0.000   0.000  -0.000  -0.481   0.000
  0.000  -0.000   2.591   0.000   0.000  -0.000  -0.000  -0.522   0.000   0.000   0.000   0.000   0.000   0.000   0.000   0.000
 -0.000  -0.000  -0.000   3.951   0.000   0.000   0.000  -0.000  -1.825   0.000   0.000   0.000  -0.481  -0.000   0.000   0.068
  0.000   0.000   0.000  -0.000   2.591   0.000  -0.000   0.000  -0.000  -0.522   0.000  -0.000   0.000   0.000  -0.000   0.000
 -1.825  -0.000   0.000  -0.000   0.000   1.694   0.000   0.000  -0.000  -0.000   0.000   0.000  -0.000   0.459  -0.000   0.000
  0.000  -1.825  -0.000   0.000  -0.000   0.000   1.694   0.000   0.000   0.000   0.000  -0.000  -0.000   0.000   0.459  -0.000
  0.000   0.000  -0.522   0.000   0.000   0.000   0.000   0.446   0.000  -0.000   0.000   0.000  -0.000   0.000   0.000   0.000
  0.000  -0.000   0.000  -1.825  -0.000  -0.000   0.000   0.000   1.694   0.000   0.000   0.000   0.459   0.000   0.000  -0.079
 -0.000  -0.000   0.000  -0.000  -0.522   0.000   0.000   0.000   0.000   0.446   0.000   0.000  -0.000   0.000   0.000   0.000
  0.000  -0.000  -0.000   0.000   0.000  -0.000   0.000   0.000  -0.000   0.000   2.873  -0.730   0.000   0.000  -0.000   0.000
  0.000  -0.000  -0.000   0.000   0.000   0.000   0.000  -0.000   0.000  -0.000  -0.730   0.221   0.000   0.000   0.000   0.000
 -0.000  -0.000  -0.000  -0.481   0.000   0.000  -0.000  -0.000   0.459   0.000   0.000   0.000   0.196  -0.000  -0.000  -0.034
 -0.481   0.000   0.000   0.000  -0.000   0.459   0.000   0.000   0.000   0.000   0.000   0.000  -0.000   0.196   0.000  -0.000
 -0.000  -0.481  -0.000   0.000   0.000   0.000   0.459  -0.000  -0.000  -0.000   0.000   0.000   0.000  -0.000   0.196   0.000
 -0.000   0.000  -0.000   0.068   0.000   0.000  -0.000   0.000  -0.079   0.000   0.000   0.000  -0.034   0.000   0.000   0.007
  0.068  -0.000   0.000   0.000   0.000  -0.079  -0.000   0.000  -0.000  -0.000  -0.000   0.000   0.000  -0.034   0.000  -0.000
 -0.000   0.068   0.000   0.000   0.000   0.000  -0.079   0.000  -0.000   0.000   0.000  -0.000   0.000   0.000  -0.034   0.000


------------------------ aborting loop because EDIFF is reached ----------------------------------------


    CHARGE:  cpu time    0.04: real time    0.09
    FORLOC:  cpu time    0.01: real time    0.01
    FORNL :  cpu time    0.05: real time    0.10
    STRESS:  cpu time    0.14: real time    0.28
    FORCOR:  cpu time    0.08: real time    0.16
    FORHAR:  cpu time    0.02: real time    0.05
    MIXING:  cpu time    0.00: real time    0.00
    OFIELD:  cpu time    0.00: real time    0.00

  FORCE on cell =-STRESS in cart. coord.  units (eV):
  Direction    XX          YY          ZZ          XY          YZ          ZX
  --------------------------------------------------------------------------------------
  Alpha Z    48.37952    48.37952    48.37952
  Ewald    -344.07876  -344.07876  -344.07876     0.00000    -0.00000     0.00000
  Hartree   170.17443   170.17443   170.17443     0.00000     0.00000     0.00000
  E(xc)     -87.25934   -87.25934   -87.25934     0.00005     0.00005     0.00005
  Local     -22.13142   -22.13142   -22.13142     0.00031     0.00031     0.00031
  n-local    28.37021    24.87662    25.06564    -1.98718     0.17782     1.18551
  augment     6.32354     6.32354     6.32354    -0.00027    -0.00027    -0.00027
  Kinetic   203.70882   201.48920   202.23963    -1.66162     0.15666     0.96775
  Fock        0.00000     0.00000     0.00000     0.00000     0.00000     0.00000
  -------------------------------------------------------------------------------------
  Total      -0.00865    -0.00865    -0.00865     0.00000     0.00000     0.00000
  in kB      -0.19627    -0.19627    -0.19627     0.00000     0.00000     0.00000
  external pressure =       -0.20 kB  Pullay stress =        0.00 kB


 VOLUME and BASIS-vectors are now :
 -----------------------------------------------------------------------------
  energy-cutoff  :      275.00
  volume of cell :       70.63
      direct lattice vectors                 reciprocal lattice vectors
     3.280901464  3.280901464  0.000000000     0.152397140  0.152397140 -0.152397140
    -0.000000000  3.280901464  3.280901464    -0.152397140  0.152397140  0.152397140
     3.280901464  0.000000000  3.280901464     0.152397140 -0.152397140  0.152397140

  length of vectors
     4.639895347  4.639895347  4.639895347     0.263959590  0.263959590  0.263959590


 FORCES acting on ions
    electron-ion (+dipol)            ewald-force                    non-local-force                 convergence-correction
 -----------------------------------------------------------------------------------------------
   -.227E-04 -.227E-04 -.227E-04   0.458E-14 0.949E-14 -.380E-13   0.000E+00 0.356E-20 0.000E+00   0.841E-07 0.841E-07 0.841E-07
   0.911E-05 0.911E-05 0.911E-05   -.453E-14 -.972E-14 0.382E-13   -.902E-16 -.902E-16 -.833E-16   0.158E-06 0.158E-06 0.158E-06
 -----------------------------------------------------------------------------------------------
   -.136E-04 -.136E-04 -.136E-04   0.498E-16 -.236E-15 0.119E-15   -.902E-16 -.902E-16 -.833E-16   0.242E-06 0.242E-06 0.242E-06
 
 
 POSITION                                       TOTAL-FORCE (eV/Angst)
 -----------------------------------------------------------------------------------
     -0.00000     -0.00000     -0.00000         0.000000     -0.000000      0.000000
      1.64045      1.64045      1.64045        -0.000000      0.000000     -0.000000
 -----------------------------------------------------------------------------------
    total drift:                               -0.000013     -0.000013     -0.000013


--------------------------------------------------------------------------------------------------------



  FREE ENERGIE OF THE ION-ELECTRON SYSTEM (eV)
  ---------------------------------------------------
  free  energy   TOTEN  =        -4.78387862 eV

  energy  without entropy=       -4.78387862  energy(sigma->0) =       -4.78387862
 
 d Force = 0.0000000E+00[ 0.000E+00, 0.000E+00]  d Energy = 0.9261942E-02-0.926E-02
 d Force = 0.0000000E+00[ 0.000E+00, 0.000E+00]  d Ewald  = 0.9011110E+01-0.901E+01


--------------------------------------------------------------------------------------------------------


    POTLOK:  cpu time    0.07: real time    0.15


--------------------------------------------------------------------------------------------------------


 Quasi-Newton relaxation of ions (Broydens 2nd method)
  g(Force)  = 0.169E-42   g(Stress)= 0.542E-05

 retain information from N=  1 steps
 eigenvalues of (default step * inverse Hessian matrix)
  average eigenvalue of G=   0.5943
 eigenvalue spectrum of G is  0.5943


--------------------------------------------------------------------------------------------------------


  
 reached required accuracy - stopping structural energy minimisation
 writing wavefunctions
     LOOP+:  cpu time    2.78: real time    5.57
    4ORBIT:  cpu time    0.00: real time    0.00

 total amount of memory used by VASP on root node    40034. kBytes
========================================================================

   base      :      30000. kBytes
   nonl-proj :       2064. kBytes
   grid      :       6400. kBytes
   one-center:         31. kBytes
   wavefun   :       1539. kBytes
 
  
  
 General timing and accounting informations for this job:
 ========================================================
  
                  Total CPU time used (sec):        9.042
                            User time (sec):        8.933
                          System time (sec):        0.109
                         Elapsed time (sec):       18.125
  
                   Maximum memory used (kb):       34912.
                   Average memory used (kb):           0.
  
                          Minor page faults:        28645
                          Major page faults:            0
                 Voluntary context switches:            0
